unknown system                          
   4.99080000000000     
     0.500000   -0.866000    0.000000
     0.500000    0.866000    0.000000
     0.000000    0.000000    1.101700
   O    Si
   6   3
Direct
  0.415000  0.272000  0.120000
  0.857000  0.585000  0.453300
  0.728000  0.143000  0.786600
  0.143000  0.728000  0.880000
  0.272000  0.415000  0.546600
  0.585000  0.857000  0.213300
  0.535000  0.535000  0.333300
  0.465000  0.000000  0.000000
  0.000000  0.465000  0.666600
 
   48   48   56
  1.3369      1.6183      2.0554      2.6726      3.4994      4.5779      5.9815      7.8113      10.169      13.127    
  16.702      20.815      25.254      29.692      33.512      35.486      34.342      29.220      20.141      8.3271    
 -3.9133     -13.786     -18.849     -17.746     -10.628     0.85081      13.995      25.922      34.459      38.680    
  38.870      36.112      31.792      27.020      22.281      17.903      14.097      10.951      8.4472      6.4968    
  4.9843      3.8096      2.9058      2.2261      1.7315      1.3975      1.2202      1.2020      1.2724      1.4880    
  1.8545      2.3908      3.1293      4.1106      5.3951      7.0726      9.2509      12.024      15.437      19.453    
  23.914      28.545      32.956      36.229      37.054      34.303      27.469      17.092      4.9050     -6.4939    
 -14.367     -16.679     -12.749     -3.4924      8.8280      21.321      31.403      37.532      39.444      37.884    
  34.129      29.491      24.688      20.091      15.975      12.489      9.6612      7.4349      5.7064      4.3670    
  3.3321      2.5443      1.9610      1.5507      1.2994      1.2071      1.2741      1.4368      1.7516      2.2304    
  2.9109      3.8478      5.1086      6.7786      8.9614      11.758      15.235      19.380      24.080      29.103    
  34.122      38.612      41.449      41.383      37.498      29.641      18.754      6.8931     -3.2305     -9.0505    
 -9.0105     -3.1301      6.9742      18.653      29.147      36.454      39.767      39.399      36.386      32.017    
  27.248      22.508      18.118      14.291      11.110      8.5618      6.5673      5.0223      3.8307      2.9207    
  2.2403      1.7505      1.4285      1.2695      1.3217      1.4370      1.7125      2.1523      2.7932      3.7078    
  4.9898      6.7378      9.0495      12.020      15.727      20.190      25.326      30.926      36.666      42.156    
  46.702      49.131      48.331      43.631      35.186      24.244      13.061      4.3523     0.39441      2.1519    
  8.8820      18.444      28.151      35.726      39.905      40.541      38.329      34.391      29.783      25.014    
  20.434      16.306      12.778      9.8858      7.5861      5.7926      4.4111      3.3590      2.5699      1.9936    
  1.5989      1.3748      1.4014      1.4677      1.7070      2.1193      2.7373      3.6432      4.9580      6.8101    
  9.3111      12.555      16.622      21.556      27.311      33.687      40.334      46.804      52.610      56.944    
  58.716      57.028      51.490      42.561      31.744      21.410      14.120      11.664      14.303      20.691    
  28.506      35.410      39.806      41.121      39.667      36.302      32.016      27.374      22.737      18.406    
  14.584      11.366      8.7509      6.6819      5.0792      3.8604      2.9487      2.2788      1.8067      1.5145    
  1.5064      1.5177      1.7151      2.1000      2.7031      3.6076      4.9503      6.8950      9.5907      13.151    
  17.665      23.199      29.749      37.141      44.980      52.684      59.621      65.201      68.639      69.077    
  65.957      59.262      49.778      39.201      29.832      23.834      22.336      24.950      30.015      35.400    
  39.350      40.943      40.113      37.401      33.612      29.283      24.769      20.387      16.383      12.906    
  10.007      7.6671      5.8286      4.4226      3.3727      2.6014      2.0482      1.6842      1.6335      1.5823    
  1.7281      2.0757      2.6556      3.5495      4.9043      6.9140      9.7718      13.631      18.610      24.819    
  32.321      40.997      50.412      59.805      68.250      74.907      79.186      80.560      78.632      73.359    
  65.168      55.118      44.911      36.536      31.553      30.413      32.286      35.525      38.440      39.889    
  39.475      37.413      34.261      30.434      26.243      21.999      17.974      14.359      11.257      8.6889    
  6.6307      5.0344      3.8352      2.9538      2.3165      1.8797      1.7781      1.6591      1.7444      2.0417    
  2.5789      3.4376      4.7729      6.8014      9.7543      13.833      19.213      26.081      34.606      44.776    
  56.168      67.834      78.461      86.735      91.739      93.153      91.049      85.731      77.764      67.965    
  57.488      47.803      40.364      36.061      34.807      35.604      37.059      37.981      37.730      36.236    
  33.779      30.592      26.907      23.002      19.144      15.552      12.368      9.6569      7.4309      5.6678    
  4.3224      3.3263      2.6027      2.0939      1.9337      1.7455      1.7648      2.0005      2.4780      3.2744    
  4.5453      6.5198      9.4637      13.633      19.272      26.658      36.107      47.790      61.398      75.870    
  89.473      100.27      106.73      108.24      105.11      98.325      89.020      78.302      67.166      56.586    
  47.563      40.942      37.047      35.475      35.273      35.382      35.049      33.976      32.168      29.669    
  26.615      23.217      19.713      16.318      13.200      10.463      8.1530      6.2748      4.8085      3.7062    
  2.8980      2.3181      2.0950      1.8395      1.7898      1.9566      2.3631      3.0772      4.2403      6.0795    
  8.8897      12.984      18.672      26.313      36.371      49.274      64.973      82.458      99.663      113.96    
  123.02      125.56      121.72      112.83      100.90      87.822      74.937      63.075      52.780      44.524    
  38.630      35.040      33.220      32.371      31.757      30.923      29.623      27.759      25.371      22.584    
  19.577      16.537      13.638      11.006      8.7136      6.7948      5.2554      4.0725      3.1906      2.5444    
  2.2588      1.9398      1.8201      1.9137      2.2413      2.8574      3.8820      5.5263      8.0944      11.940    
  17.425      24.967      35.148      48.652      65.811      85.915      106.82      125.31      138.12      143.06    
  139.70      129.37      114.60      98.189      82.376      68.359      56.515      46.891      39.508      34.333    
  31.104      29.290      28.258      27.446      26.463      25.109      23.330      21.172      18.738      16.170    
  13.616      11.208      9.0399      7.1675      5.6195      4.3961      3.4627      2.7640      2.4206      2.0455    
  1.8567      1.8764      2.1209      2.6272      3.4948      4.9132      7.1682      10.618      15.656      22.739    
  32.498      45.783      63.320      84.927      108.78      131.43      148.84      157.62      156.30      145.97    
  129.33      109.82      90.594      73.670      59.732      48.623      39.984      33.578      29.199      26.485    
  24.906      23.908      23.048      22.045      20.758      19.163      17.303      15.259      13.133      11.041    
  9.0883      7.3479      5.8616      4.6461      3.6928      2.9649      2.5727      2.1550      1.9026      1.8505    
  2.0136      2.4089      3.1124      4.2894      6.1916      9.1502      13.565      19.902      28.771      41.040    
  57.697      79.166      104.33      130.03      151.93      165.62      168.12      159.53      142.68      121.30    
  99.230      79.388      63.090      50.311      40.463      33.028      27.687      24.131      21.935      20.608    
  19.706      18.891      17.955      16.811      15.457      13.923      12.254      10.532      8.8578      7.3177    
  5.9575      4.8018      3.8653      3.1351      2.7102      2.2682      1.9641      1.8432      1.9278      2.2212    
  2.7698      3.7043      5.2380      7.6654      11.366      16.786      24.463      35.155      49.891      69.543    
  93.846      120.49      145.34      163.69      171.26      166.53      151.53      130.24      106.78      84.806    
  66.403      51.986      40.987      32.675      26.548      22.263      19.469      17.749      16.686      15.920    
  15.194      14.375      13.423      12.328      11.092      9.7529      8.3922      7.0941      5.9076      4.8603    
  3.9791      3.2716      2.8410      2.3925      2.0534      1.8675      1.8695      2.0675      2.4825      3.1984    
  4.3809      6.2839      9.2510      13.690      20.054      28.933      41.200      57.860      79.323      104.38    
  129.74      150.88      163.23      163.77      152.91      134.01      111.26      88.670      69.028      53.375    
  41.430      32.423      25.696      20.838      17.531      15.427      14.142      13.318      12.685      12.074    
  11.411      10.657      9.7894      8.8112      7.7688      6.7287      5.7421      4.8404      4.0503      3.3873    
  2.9897      2.5476      2.1891      1.9452      1.8581      1.9555      2.2525      2.7884      3.6696      5.0970    
  7.3674      10.842      15.908      23.007      32.766      46.032      63.502      84.903      108.21      129.66    
  144.92      150.46      145.09      130.68      110.86      89.591      70.097      54.025      41.564      32.122    
  25.008      19.757      16.065      13.634      12.120      11.185      10.557      10.057      9.5802      9.0695    
  8.4899      7.8231      7.0783      6.2934      5.5154      4.7794      4.1060      3.5081      3.1880      2.7622    
  2.3945      2.1050      1.9332      1.9227      2.0986      2.4779      3.1142      4.1439      5.8011      8.3945    
  12.263      17.754      25.280      35.406      48.758      65.558      84.901      104.33      120.23      129.09    
  128.88      119.94      104.69      86.586      68.818      53.430      41.104      31.592      24.337      18.889    
  14.956      12.287      10.580      9.5247      8.8584      8.3978      8.0277      7.6800      7.3124      6.8936    
  6.4066      5.8610      5.2891      4.7229      4.1783      3.6634      3.4640      3.0645      2.6950      2.3742    
  2.1354      2.0216      2.0661      2.2875      2.7145      3.4267      4.5836      6.4269      9.2495      13.348    
  19.007      26.553      36.385      48.804      63.563      79.359      93.763      103.84      107.29      103.39    
  93.327      79.554      64.818      51.213      39.777      30.652      23.538      18.093      14.070      11.262    
  9.4231      8.2741      7.5621      7.1045      6.7884      6.5459      6.3296      6.0990      5.8229      5.4911    
  5.1151      4.7141      4.3004      3.8805      3.8462      3.4827      3.1186      2.7772      2.4877      2.2835    
  2.1975      2.2582      2.4931      2.9470      3.7126      4.9562      6.9129      9.8403      13.968      19.495    
  26.624      35.541      46.211      58.045      69.660      79.053      84.234      84.037      78.627      69.400    
  58.348      47.300      37.420      29.152      22.483      17.244      13.277      10.437      8.5346      7.3316    
  6.5905      6.1315      5.8463      5.6734      5.5658      5.4788      5.3739      5.2279      5.0331      4.7921    
  4.5101      4.1924      4.3873      4.0667      3.7128      3.3513      3.0106      2.7207      2.5143      2.4248    
  2.4814      2.7128      3.1692      3.9525      5.2302      7.2115      10.098      14.046      19.164      25.518    
  33.074      41.549      50.226      57.922      63.244      65.075      63.045      57.698      50.231      41.998    
  34.063      27.020      21.075      16.241      12.476      9.7096      7.8142      6.5986      5.8525      5.4051    
  5.1506      5.0322      5.0095      5.0408      5.0839      5.1049      5.0820      5.0027      4.8613      4.6554    
  5.1912      4.9213      4.5752      4.1804      3.7688      3.3771      3.0446      2.8070      2.6914      2.7202    
  2.9237      3.3593      4.1299      5.3849      7.2943      10.003      13.594      18.086      23.422      29.422    
  35.694      41.573      46.192      48.721      48.668      46.087      41.546      35.894      29.952      24.306    
  19.280      15.022      11.595      9.0054      7.1872      6.0008      5.2735      4.8528      4.6377      4.5744    
  4.6306      4.7730      4.9600      5.1499      5.3085      5.4107      5.4353      5.3649      6.4168      6.2195    
  5.8786      5.4273      4.9091      4.3741      3.8731      3.4499      3.1383      2.9633      2.9460      3.1127    
  3.5132      4.2381      5.4138      7.1675      9.5838      12.683      16.417      20.661      25.170      29.545    
  33.258      35.756      36.623      35.723      33.249      29.649      25.466      21.185      17.150      13.578    
  10.600      8.2793      6.6049      5.4902      4.8048      4.4222      4.2538      4.2527      4.3945      4.6556    
  5.0003      5.3844      5.7630      6.0944      6.3376      6.4542      8.2447      8.1752      7.8595      7.3352    
  6.6642      5.9180      5.1674      4.4774      3.9030      3.4826      3.2342      3.1632      3.2814      3.6284    
  4.2796      5.3295      6.8595      8.9073      11.452      14.409      17.617      20.830      23.715      25.908    
  27.093      27.092      25.923      23.785      20.997      17.907      14.820      11.964      9.4979      7.5142    
  6.0404      5.0365      4.4153      4.0809      3.9639      4.0308      4.2690      4.6660      5.1964      5.8196    
  6.4824      7.1226      7.6729      8.0661      10.828      10.990      10.766      10.186      9.3249      8.2865    
  7.1809      6.1118      5.1657      4.4023      3.8497      3.5095      3.3711      3.4321      3.7145      4.2694    
  5.1607      6.4344      8.0910      10.078      12.294      14.589      16.760      18.564      19.763      20.186    
  19.778      18.607      16.846      14.719      12.464      10.285      8.3365      6.7203      5.4834      4.6199    
  4.0816      3.8054      3.7444      3.8824      4.2249      4.7773      5.5291      6.4469      7.4729      8.5262    
  9.5075      10.309      14.258      14.815      14.812      14.248      13.200      11.808      10.240      8.6563    
  7.1883      5.9294      4.9363      4.2278      3.7877      3.5810      3.5813      3.7910      4.2399      4.9619    
  5.9689      7.2364      8.7036      10.278      11.834      13.217      14.260      14.820      14.816      14.250    
  13.204      11.815      10.245      8.6571      7.1856      5.9270      4.9359      4.2270      3.7833      3.5728    
  3.5715      3.7821      4.2323      4.9539      5.9588      7.2258      8.6977      10.280      11.841      13.222    
  18.563      19.757      20.183      19.778      18.606      16.839      14.711      12.461      10.286      8.3390    
  6.7208      5.4832      4.6211      4.0851      3.8114      3.7523      3.8896      4.2277      4.7757      5.5283    
  6.4517      7.4821      8.5343      9.5107      10.308      10.827      10.991      10.770      10.190      9.3264    
  8.2851      7.1791      6.1130      5.1705      4.4069      3.8497      3.5034      3.3606      3.4194      3.7013    
  4.2572      5.1497      6.4228      8.0786      10.069      12.294      14.597      16.766      23.702      25.898    
  27.089      27.095      25.930      23.792      21.002      17.907      14.814      11.958      9.4944      7.5143    
  6.0416      5.0374      4.4173      4.0859      3.9704      4.0340      4.2664      4.6608      5.1951      5.8255    
  6.4928      7.1314      7.6764      8.0655      8.2441      8.1773      7.8635      7.3386      6.6652      5.9174    
  5.1678      4.4807      3.9078      3.4846      3.2295      3.1515      3.2660      3.6123      4.2633      5.3127    
  6.8444      8.8984      11.451      14.412      17.616      20.821      29.529      33.246      35.751      36.624    
  35.729      33.260      29.661      25.474      21.183      17.144      13.573      10.599      8.2797      6.6045    
  5.4900      4.8059      4.4247      4.2584      4.2593      4.4001      4.6558      4.9956      5.3807      5.7650    
  6.1000      6.3419      6.4564      6.4196      6.2234      5.8815      5.4291      4.9128      4.3807      3.8787    
  3.4502      3.1331      2.9550      2.9350      3.0984      3.4965      4.2202      5.3948      7.1482      9.5692    
  12.678      16.420      20.661      25.160      35.690      41.579      46.205      48.730      48.668      46.079    
  41.540      35.896      29.960      24.314      19.283      15.021      11.594      9.0047      7.1868      6.0002    
  5.2734      4.8555      4.6453      4.5847      4.6374      4.7716      4.9533      5.1453      5.3107      5.4171    
  5.4412      5.3687      5.1944      4.9243      4.5771      4.1819      3.7720      3.3821      3.0473      2.8033    
  2.6820      2.7088      2.9120      3.3455      4.1119      5.3643      7.2750      9.9876      13.583      18.076    
  23.411      29.412      41.547      50.240      57.949      63.267      65.080      63.032      57.679      50.220    
  42.000      34.073      27.029      21.079      16.241      12.475      9.7098      7.8156      6.5997      5.8521    
  5.4042      5.1522      5.0381      5.0182      5.0482      5.0876      5.1063      5.0839      5.0067      4.8659    
  4.6588      4.3894      4.0688      3.7152      3.3528      3.0098      2.7179      2.5111      2.4224      2.4790    
  2.7080      3.1593      3.9367      5.2102      7.1913      10.082      14.035      19.154      25.506      33.063    
  46.221      58.060      69.674      79.062      84.240      84.043      78.633      69.401      58.344      47.295    
  37.419      29.156      22.487      17.245      13.278      10.439      8.5381      7.3326      6.5873      6.1272    
  5.8469      5.6820      5.5795      5.4911      5.3806      5.2298      5.0343      4.7950      4.5140      4.1956    
  3.8485      3.4851      3.1212      2.7784      2.4862      2.2808      2.1963      2.2595      2.4945      2.9437    
  3.7018      4.9394      6.8947      9.8248      13.956      19.485      26.617      35.540      48.818      63.582    
  79.367      93.756      103.84      107.30      103.43      93.355      79.563      64.813      51.206      39.775    
  30.653      23.541      18.096      14.072      11.263      9.4263      8.2804      7.5678      7.1059      6.7881    
  6.5498      6.3386      6.1083      5.8293      5.4959      5.1202      4.7185      4.3031      3.8831      3.4680    
  3.0679      2.6962      2.3751      2.1392      2.0272      2.0693      2.2865      2.7102      3.4187      4.5709    
  6.4122      9.2384      13.341      18.999      26.544      36.384      48.763      65.562      84.902      104.33    
  120.24      129.11      128.92      119.98      104.72      86.599      68.820      53.428      41.103      31.593    
  24.339      18.890      14.958      12.291      10.590      9.5379      8.8687      8.4007      8.0258      7.6809    
  7.3200      6.9051      6.4169      5.8685      5.2951      4.7281      4.1823      3.6663      3.1910      2.7654    
  2.3971      2.1076      1.9378      1.9289      2.1022      2.4746      3.1048      4.1335      5.7933      8.3889    
  12.257      17.749      25.278      35.408      46.041      63.498      84.895      108.21      129.68      144.95    
  150.48      145.12      130.72      110.88      89.602      70.099      54.027      41.569      32.122      25.006    
  19.759      16.071      13.640      12.125      11.194      10.573      10.071      9.5876      9.0754      8.5016    
  7.8380      7.0887      6.2990      5.5221      4.7881      4.1113      3.5089      2.9917      2.5535      2.1937    
  1.9451      1.8575      1.9581      2.2538      2.7837      3.6639      5.0977      7.3709      10.839      15.899    
  23.006      32.776      41.206      57.865      79.328      104.39      129.75      150.90      163.25      163.79    
  152.92      134.02      111.28      88.685      69.036      53.376      41.429      32.425      25.701      20.841    
  17.531      15.427      14.148      13.335      12.708      12.098      11.430      10.671      9.8022      8.8246    
  7.7813      6.7385      5.7495      4.8469      4.0559      3.3914      2.8437      2.3952      2.0566      1.8695    
  1.8686      2.0649      2.4817      3.2013      4.3861      6.2881      9.2521      13.689      20.054      28.937    
  35.152      49.894      69.559      93.864      120.51      145.36      163.72      171.29      166.54      151.52    
  130.25      106.81      84.825      66.402      51.977      40.988      32.685      26.554      22.264      19.473    
  17.762      16.700      15.934      15.216      14.406      13.452      12.348      11.108      9.7718      8.4109    
  7.1043      5.9116      4.8672      3.9889      3.2762      2.7087      2.2693      1.9705      1.8470      1.9253    
  2.2211      2.7779      3.7122      5.2360      7.6595      11.368      16.796      24.467      28.776      41.045    
  57.704      79.179      104.34      130.05      151.95      165.64      168.14      159.55      142.70      121.31    
  99.233      79.386      63.087      50.310      40.463      33.033      27.699      24.149      21.952      20.621    
  19.719      18.912      17.986      16.847      15.492      13.953      12.280      10.553      8.8735      7.3291    
  5.9662      4.8088      3.8703      3.1386      2.5755      2.1574      1.9042      1.8523      2.0176      2.4149    
  3.1171      4.2894      6.1880      9.1482      13.568      19.908      22.744      32.507      45.790      63.325    
  84.942      108.80      131.44      148.84      157.63      156.33      146.01      129.34      109.80      90.575    
  73.668      59.740      48.623      39.980      33.584      29.217      26.506      24.925      23.931      23.081    
  22.082      20.796      19.204      17.347      15.299      13.161      11.061      9.1063      7.3636      5.8695    
  4.6487      3.6975      2.9722      2.4239      2.0439      1.8575      1.8822      2.1248      2.6246      3.4920    
  4.9172      7.1748      10.620      15.656      17.430      24.969      35.149      48.656      65.820      85.930    
  106.84      125.33      138.14      143.08      139.71      129.37      114.59      98.179      82.373      68.363    
  56.521      46.894      39.508      34.336      31.116      29.315      28.296      27.491      26.510      25.157    
  23.380      21.223      18.786      16.210      13.647      11.232      9.0573      7.1789      5.6266      4.4015    
  3.4675      2.7674      2.2608      1.9419      1.8228      1.9154      2.2403      2.8550      3.8821      5.5315    
  8.1032      11.949      12.991      18.676      26.313      36.370      49.273      64.974      82.468      99.689    
  113.99      123.04      125.55      121.69      112.82      100.91      87.833      74.944      63.078      52.785    
  44.531      38.636      35.046      33.236      32.404      31.803      30.977      29.681      27.821      25.432    
  22.642      19.627      16.580      13.671      11.028      8.7277      6.8050      5.2633      4.0773      3.1931    
  2.5471      2.0986      1.8420      1.7904      1.9575      2.3658      3.0803      4.2425      6.0829      8.8959    
  9.4611      13.633      19.277      26.664      36.108      47.785      61.394      75.874      89.483      100.28    
  106.74      108.23      105.11      98.332      89.031      78.309      67.166      56.585      47.569      40.956    
  37.063      35.491      35.293      35.415      35.098      34.039      32.238      29.740      26.683      23.279    
  19.764      16.357      13.229      10.484      8.1661      6.2831      4.8141      3.7104      2.9011      2.3204    
  1.9357      1.7474      1.7664      2.0025      2.4817      3.2800      4.5497      6.5201      6.8008      9.7551    
  13.837      19.222      26.091      34.612      44.772      56.156      67.821      78.452      86.735      91.747    
  93.169      91.068      85.745      77.765      67.955      57.477      47.801      40.374      36.078      34.828    
  35.629      37.091      38.023      37.785      36.304      33.854      30.666      26.974      23.059      19.191    
  15.587      12.392      9.6727      7.4416      5.6751      4.3268      3.3290      2.6053      2.0965      1.7799    
  1.6600      1.7458      2.0441      2.5813      3.4386      4.7726      4.9035      6.9183      9.7800      13.640    
  18.619      24.827      32.325      40.996      50.406      59.797      68.246      74.909      79.194      80.569    
  78.637      73.356      65.160      55.109      44.904      36.534      31.558      30.430      32.315      35.564    
  38.484      39.940      39.535      37.483      34.334      30.503      26.304      22.051      18.014      14.387    
  11.275      8.7016      6.6396      5.0398      3.8380      2.9561      2.3191      1.8817      1.6344      1.5835    
  1.7304      2.0772      2.6541      3.5463      3.6089      4.9527      6.8991      9.5948      13.153      17.665    
  23.204      29.761      37.154      44.984      52.681      59.618      65.204      68.639      69.067      65.940    
  59.252      49.782      39.209      29.835      23.831      22.338      24.965      30.044      35.440      39.398    
  40.999      40.175      37.465      33.676      29.344      24.820      20.427      16.413      12.927      10.022    
  7.6759      5.8341      4.4267      3.3758      2.6032      2.0493      1.6857      1.5083      1.5191      1.7158    
  2.1006      2.7042      2.7411      3.6486      4.9617      6.8082      9.3037      12.547      16.621      21.564    
  27.321      33.694      40.336      46.804      52.610      56.943      58.711      57.020      51.486      42.567    
  31.759      21.425      14.125      11.658      14.297      20.698      28.530      35.448      39.853      41.175    
  39.724      36.358      32.069      27.421      22.775      18.436      14.606      11.380      8.7604      6.6883    
  5.0833      3.8631      2.9507      2.2805      1.8080      1.5153      1.4022      1.4686      1.7081      2.1212    
  2.1540      2.7963      3.7102      4.9896      6.7358      9.0476      12.018      15.722      20.185      25.325    
  30.931      36.672      42.157      46.698      49.130      48.337      43.642      35.200      24.256      13.067    
  4.3529     0.39004      2.1466      8.8817      18.453      28.172      35.759      39.946      40.586      38.373    
  34.433      29.822      25.048      20.460      16.325      12.791      9.8953      7.5926      5.7962      4.4132    
  3.3613      2.5722      1.9947      1.5989      1.3752      1.3230      1.4380      1.7132      1.7535      2.2319    
  2.9093      3.8445      5.1085      6.7838      8.9675      11.759      15.229      19.374      24.079      29.106    
  34.125      38.613      41.449      41.388      37.510      29.652      18.756      6.8834     -3.2433     -9.0551    
 -9.0036     -3.1180      6.9851      18.664      29.163      36.477      39.795      39.429      36.415      32.046    
  27.274      22.527      18.133      14.301      11.118      8.5665      6.5698      5.0244      3.8331      2.9223    
  2.2406      1.7508      1.4296      1.2703      1.2741      1.4373      1.4901      1.8561      2.3899      3.1268    
  4.1086      5.3948      7.0753      9.2571      12.031      15.440      19.449      23.909      28.545      32.960    
  36.233      37.057      34.308      27.473      17.087      4.8880     -6.5124     -14.372     -16.668     -12.733    
 -3.4810      8.8351      21.329      31.413      37.542      39.455      37.899      34.146      29.505      24.698    
  20.099      15.983      12.494      9.6630      7.4356      5.7084      4.3692      3.3324      2.5437      1.9617    
  1.5523      1.2996      1.2060      1.2725      1.3466      1.6251      2.0609      2.6788      3.5106      4.5989    
  6.0141      7.8561      10.228      13.205      16.800      20.929      25.382      29.836      33.708      35.805    
  34.880      30.080      21.402      10.010     -1.8373     -11.357     -16.086     -14.676     -7.3330      4.2050    
  17.208      28.831      36.991      40.844      40.726      37.731      33.229      28.286      23.368      18.804    
  14.815      11.495      8.8369      6.7598      5.1537      3.9177      2.9781      2.2789      1.7731      1.4301    
  1.2437      1.2172      1.3038      1.5364      1.9214      2.4806      3.2557      4.3022      5.6916      7.5168    
  9.8828      12.880      16.548      20.841      25.591      30.518      35.233      38.855      40.093      37.802    
  31.413      21.343      9.1947     -2.4916     -10.928     -13.957     -10.778     -2.2351      9.4426      21.395    
  31.069      36.937      38.725      37.152      33.465      28.935      24.239      19.740      15.710      12.295    
  9.5214      7.3343      5.6336      4.3150      3.2953      2.5177      1.9423      1.5413      1.3019      1.2233    
  1.3066      1.5060      1.8586      2.3820      3.1270      4.1714      5.6061      7.5293      10.044      13.247    
  17.198      21.878      27.149      32.754      38.347      43.410      46.834      47.350      43.976      36.428    
  25.477      13.031      1.7800     -5.5739     -7.2319     -2.9691      5.7713      16.428      26.264      33.248    