unknown system                          
   4.99080000000000     
     0.500000   -0.866000    0.000000
     0.500000    0.866000    0.000000
     0.000000    0.000000    1.101700
   O    Si
   6   3
Direct
  0.415000  0.272000  0.120000
  0.857000  0.585000  0.453300
  0.728000  0.143000  0.786600
  0.143000  0.728000  0.880000
  0.272000  0.415000  0.546600
  0.585000  0.857000  0.213300
  0.535000  0.535000  0.333300
  0.465000  0.000000  0.000000
  0.000000  0.465000  0.666600
 
   48   48   56
 0.13369037536E+01 0.16182540865E+01 0.20553894284E+01 0.26726151664E+01 0.34993671729E+01
 0.45779221208E+01 0.59814940873E+01 0.78112571615E+01 0.10168664214E+02 0.13126589776E+02
 0.16702019188E+02 0.20815088374E+02 0.25254311191E+02 0.29692250380E+02 0.33511750819E+02
 0.35486066411E+02 0.34342303017E+02 0.29219909529E+02 0.20140821669E+02 0.83270646671E+01
 -.39133078903E+01 -.13786286462E+02 -.18849166021E+02 -.17746363570E+02 -.10627750351E+02
 0.85081007462E+00 0.13995105323E+02 0.25921703319E+02 0.34459383501E+02 0.38679992251E+02
 0.38869717399E+02 0.36111946724E+02 0.31791633459E+02 0.27020191809E+02 0.22280986039E+02
 0.17902721350E+02 0.14097420647E+02 0.10951437357E+02 0.84472440911E+01 0.64967764539E+01
 0.49842849802E+01 0.38096123078E+01 0.29057626359E+01 0.22260638608E+01 0.17314955798E+01
 0.13975385870E+01 0.12202024996E+01 0.12019985485E+01 0.12723905178E+01 0.14880046713E+01
 0.18544821511E+01 0.23908397779E+01 0.31292831640E+01 0.41106209615E+01 0.53950817805E+01
 0.70726439789E+01 0.92508547947E+01 0.12023826068E+02 0.15437428787E+02 0.19452762461E+02
 0.23913698039E+02 0.28545253287E+02 0.32956064978E+02 0.36228540204E+02 0.37054384419E+02
 0.34303132179E+02 0.27468888107E+02 0.17092175745E+02 0.49049845706E+01 -.64938555234E+01
 -.14366582556E+02 -.16679175286E+02 -.12749035991E+02 -.34924297466E+01 0.88280168816E+01
 0.21321497309E+02 0.31403146926E+02 0.37532364487E+02 0.39443506968E+02 0.37883639169E+02
 0.34128722964E+02 0.29491176846E+02 0.24688057268E+02 0.20091087635E+02 0.15975285745E+02
 0.12488930085E+02 0.96611965299E+01 0.74348806690E+01 0.57063791434E+01 0.43669740230E+01
 0.33320852427E+01 0.25443183480E+01 0.19610230809E+01 0.15507167924E+01 0.12994324850E+01
 0.12071162598E+01 0.12741250050E+01 0.14368260916E+01 0.17515523291E+01 0.22304123368E+01
 0.29108870874E+01 0.38478362407E+01 0.51086061640E+01 0.67786459802E+01 0.89614427810E+01
 0.11758475350E+02 0.15234523563E+02 0.19380224394E+02 0.24080438951E+02 0.29103029534E+02
 0.34121823813E+02 0.38612188343E+02 0.41449299787E+02 0.41383305435E+02 0.37498374601E+02
 0.29640620084E+02 0.18754453744E+02 0.68930940554E+01 -.32305180016E+01 -.90505239218E+01
 -.90104985361E+01 -.31300888884E+01 0.69742056829E+01 0.18653128170E+02 0.29147352741E+02
 0.36453857933E+02 0.39766606129E+02 0.39399431331E+02 0.36385653125E+02 0.32017340963E+02
 0.27247932196E+02 0.22507509720E+02 0.18118384494E+02 0.14290517994E+02 0.11109914987E+02
 0.85617979932E+01 0.65673165049E+01 0.50222742551E+01 0.38307241825E+01 0.29207408046E+01
 0.22402834722E+01 0.17504684356E+01 0.14285425197E+01 0.12694676877E+01 0.13217495275E+01
 0.14370095723E+01 0.17124945880E+01 0.21522908023E+01 0.27931675323E+01 0.37078033357E+01
 0.49898461294E+01 0.67377912750E+01 0.90495374927E+01 0.12020362245E+02 0.15726975410E+02
 0.20189733838E+02 0.25326343598E+02 0.30926110796E+02 0.36666414336E+02 0.42155986650E+02
 0.46701818320E+02 0.49131447373E+02 0.48331444838E+02 0.43630781890E+02 0.35186166496E+02
 0.24244123401E+02 0.13060828607E+02 0.43522663879E+01 0.39440849256E+00 0.21518500919E+01
 0.88819573846E+01 0.18443542280E+02 0.28151208540E+02 0.35726140951E+02 0.39904929179E+02
 0.40540953841E+02 0.38328612718E+02 0.34391168952E+02 0.29783286707E+02 0.25013933258E+02
 0.20433684974E+02 0.16305832321E+02 0.12777702134E+02 0.98858021499E+01 0.75860765908E+01
 0.57925652104E+01 0.44111093914E+01 0.33590140527E+01 0.25699423650E+01 0.19936411983E+01
 0.15988585439E+01 0.13747569469E+01 0.14014027041E+01 0.14677413252E+01 0.17070361247E+01
 0.21192853867E+01 0.27372755720E+01 0.36432252387E+01 0.49580186145E+01 0.68101093127E+01
 0.93111350998E+01 0.12554770148E+02 0.16621634021E+02 0.21556479121E+02 0.27310595210E+02
 0.33686636569E+02 0.40333920866E+02 0.46804110168E+02 0.52609865094E+02 0.56943936153E+02
 0.58716411006E+02 0.57027842420E+02 0.51489849890E+02 0.42560668208E+02 0.31743887886E+02
 0.21409869663E+02 0.14120247548E+02 0.11663689024E+02 0.14303100970E+02 0.20691322219E+02
 0.28506373796E+02 0.35409832031E+02 0.39805840207E+02 0.41121301567E+02 0.39667191033E+02
 0.36301837135E+02 0.32016149957E+02 0.27373796532E+02 0.22736635827E+02 0.18405781113E+02
 0.14584493100E+02 0.11366058595E+02 0.87509179340E+01 0.66819493310E+01 0.50792051535E+01
 0.38604034498E+01 0.29486595570E+01 0.22787603038E+01 0.18067080717E+01 0.15144682063E+01
 0.15064454419E+01 0.15177427814E+01 0.17151268260E+01 0.20999794642E+01 0.27031471876E+01
 0.36075950174E+01 0.49503385286E+01 0.68950027391E+01 0.95907382032E+01 0.13151235035E+02
 0.17665098032E+02 0.23199453809E+02 0.29748810113E+02 0.37141202199E+02 0.44979524077E+02
 0.52684205562E+02 0.59620687071E+02 0.65201324519E+02 0.68639093638E+02 0.69077231460E+02
 0.65956789923E+02 0.59261529829E+02 0.49778426717E+02 0.39200823230E+02 0.29832137691E+02
 0.23833808180E+02 0.22335788254E+02 0.24949863652E+02 0.30015002227E+02 0.35400489804E+02
 0.39349921036E+02 0.40943484447E+02 0.40113451289E+02 0.37400744310E+02 0.33611610902E+02
 0.29283462243E+02 0.24768771368E+02 0.20386629482E+02 0.16382835648E+02 0.12905899773E+02
 0.10007372517E+02 0.76670540232E+01 0.58285740220E+01 0.44225950743E+01 0.33726692493E+01
 0.26014272970E+01 0.20482491436E+01 0.16842254490E+01 0.16335420834E+01 0.15823328696E+01
 0.17281133913E+01 0.20757455492E+01 0.26555610592E+01 0.35494954682E+01 0.49043408389E+01
 0.69140174560E+01 0.97717943728E+01 0.13630667534E+02 0.18609742448E+02 0.24818992896E+02
 0.32320703466E+02 0.40997032922E+02 0.50412431198E+02 0.59805040882E+02 0.68250164721E+02
 0.74906713699E+02 0.79185981829E+02 0.80559786023E+02 0.78632090299E+02 0.73358867499E+02
 0.65168067500E+02 0.55117909576E+02 0.44911231992E+02 0.36536353143E+02 0.31553416408E+02
 0.30413384912E+02 0.32285830677E+02 0.35525122999E+02 0.38440025007E+02 0.39889497233E+02
 0.39474681531E+02 0.37413430180E+02 0.34260952664E+02 0.30434132941E+02 0.26242666476E+02
 0.21999291975E+02 0.17973893543E+02 0.14359219650E+02 0.11256719970E+02 0.86889250707E+01
 0.66307204500E+01 0.50344215897E+01 0.38351791759E+01 0.29538081260E+01 0.23164989764E+01
 0.18797075783E+01 0.17780931653E+01 0.16590551597E+01 0.17444477139E+01 0.20416642807E+01
 0.25789135450E+01 0.34375874799E+01 0.47728716758E+01 0.68013579283E+01 0.97543011362E+01
 0.13833065330E+02 0.19213118609E+02 0.26080651318E+02 0.34605508121E+02 0.44776285010E+02
 0.56168154714E+02 0.67834357976E+02 0.78460583407E+02 0.86735084995E+02 0.91739183257E+02
 0.93152718456E+02 0.91048617703E+02 0.85730859156E+02 0.77763788147E+02 0.67964891262E+02
 0.57488403706E+02 0.47802973037E+02 0.40364183494E+02 0.36061078065E+02 0.34806508652E+02
 0.35603814816E+02 0.37058746743E+02 0.37980573315E+02 0.37729879576E+02 0.36235546151E+02
 0.33778670737E+02 0.30591647707E+02 0.26907068328E+02 0.23001519377E+02 0.19143921250E+02
 0.15551936136E+02 0.12367534816E+02 0.96569035817E+01 0.74308544443E+01 0.56678062151E+01
 0.43223840221E+01 0.33263486323E+01 0.26027378008E+01 0.20938822811E+01 0.19336901728E+01
 0.17454982397E+01 0.17648058418E+01 0.20005485355E+01 0.24779558909E+01 0.32744307405E+01
 0.45452930566E+01 0.65198254143E+01 0.94636633976E+01 0.13633168757E+02 0.19271981601E+02
 0.26658392099E+02 0.36106666182E+02 0.47789687924E+02 0.61397911979E+02 0.75870447176E+02
 0.89472572509E+02 0.10026590018E+03 0.10673360497E+03 0.10823660361E+03 0.10510799324E+03
 0.98325010207E+02 0.89020190265E+02 0.78301789626E+02 0.67166468214E+02 0.56586192330E+02
 0.47563394292E+02 0.40941815802E+02 0.37046520946E+02 0.35475374234E+02 0.35273257178E+02
 0.35382258880E+02 0.35049324484E+02 0.33976358458E+02 0.32168478379E+02 0.29669071823E+02
 0.26615086850E+02 0.23217474586E+02 0.19712538776E+02 0.16317600700E+02 0.13200089532E+02
 0.10463459741E+02 0.81530104942E+01 0.62748298642E+01 0.48084670234E+01 0.37061808242E+01
 0.28980053316E+01 0.23181399353E+01 0.20950143723E+01 0.18395104252E+01 0.17898335555E+01
 0.19565891876E+01 0.23630667810E+01 0.30772089413E+01 0.42402603051E+01 0.60795004094E+01
 0.88896986987E+01 0.12984469885E+02 0.18672438147E+02 0.26312537142E+02 0.36370752893E+02
 0.49273900820E+02 0.64972572120E+02 0.82457848928E+02 0.99663310671E+02 0.11396025647E+03
 0.12301645082E+03 0.12556045176E+03 0.12171644332E+03 0.11283174440E+03 0.10090468188E+03
 0.87821674053E+02 0.74936605722E+02 0.63074887330E+02 0.52780472267E+02 0.44524091801E+02
 0.38630283368E+02 0.35039549474E+02 0.33220144954E+02 0.32370872302E+02 0.31756681165E+02
 0.30923362719E+02 0.29623417943E+02 0.27759481491E+02 0.25370556598E+02 0.22584487010E+02
 0.19576977770E+02 0.16537470676E+02 0.13637933087E+02 0.11005586274E+02 0.87136398946E+01
 0.67947551095E+01 0.52553826944E+01 0.40725351586E+01 0.31906020978E+01 0.25444134762E+01
 0.22587977983E+01 0.19398372229E+01 0.18200823818E+01 0.19136558838E+01 0.22412854492E+01
 0.28574276048E+01 0.38819531894E+01 0.55263097641E+01 0.80944038602E+01 0.11939986223E+02
 0.17424845941E+02 0.24966558714E+02 0.35147675174E+02 0.48652158906E+02 0.65811406338E+02
 0.85914658150E+02 0.10681925128E+03 0.12531026276E+03 0.13812197837E+03 0.14306313312E+03
 0.13970091317E+03 0.12936935878E+03 0.11459517612E+03 0.98188785736E+02 0.82375985115E+02
 0.68358576741E+02 0.56515336175E+02 0.46891146391E+02 0.39507659421E+02 0.34333235344E+02
 0.31104370273E+02 0.29289618511E+02 0.28257565799E+02 0.27446064055E+02 0.26463443063E+02
 0.25109180844E+02 0.23330219955E+02 0.21171556431E+02 0.18738331299E+02 0.16169841424E+02
 0.13615724131E+02 0.11207895295E+02 0.90399057886E+01 0.71675369851E+01 0.56194608691E+01
 0.43960790903E+01 0.34626889688E+01 0.27639640480E+01 0.24205689410E+01 0.20455321340E+01
 0.18566996133E+01 0.18763832781E+01 0.21208930127E+01 0.26272429066E+01 0.34947672870E+01
 0.49132369620E+01 0.71682406389E+01 0.10617737704E+02 0.15656391617E+02 0.22739130975E+02
 0.32498069018E+02 0.45783278650E+02 0.63319646440E+02 0.84926624283E+02 0.10878153323E+03
 0.13142833518E+03 0.14883720483E+03 0.15761986886E+03 0.15630268737E+03 0.14596824464E+03
 0.12932831484E+03 0.10981624619E+03 0.90594101124E+02 0.73669988229E+02 0.59732117678E+02
 0.48622713538E+02 0.39984128860E+02 0.33578057975E+02 0.29198522171E+02 0.26484526007E+02
 0.24905898186E+02 0.23907874905E+02 0.23048399664E+02 0.22044513941E+02 0.20758203608E+02
 0.19162865629E+02 0.17302735134E+02 0.15258752953E+02 0.13133411811E+02 0.11041441975E+02
 0.90882542661E+01 0.73479270457E+01 0.58615530747E+01 0.46461478130E+01 0.36928113502E+01
 0.29649003769E+01 0.25727026786E+01 0.21550437736E+01 0.19025710950E+01 0.18504513104E+01
 0.20135981926E+01 0.24088924082E+01 0.31124189314E+01 0.42894361666E+01 0.61915681586E+01
 0.91502194478E+01 0.13565024572E+02 0.19902180661E+02 0.28771081731E+02 0.41040100118E+02
 0.57696609649E+02 0.79165660462E+02 0.10432653321E+03 0.13002981886E+03 0.15193045073E+03
 0.16562210199E+03 0.16811682010E+03 0.15952722255E+03 0.14267842704E+03 0.12130157383E+03
 0.99229933835E+02 0.79387542112E+02 0.63090030109E+02 0.50311276099E+02 0.40462989433E+02
 0.33027949132E+02 0.27686943235E+02 0.24131238912E+02 0.21934817691E+02 0.20607704720E+02
 0.19705639640E+02 0.18891340018E+02 0.17955004808E+02 0.16810737276E+02 0.15456723730E+02
 0.13922560918E+02 0.12254456893E+02 0.10531733023E+02 0.88577680961E+01 0.73177308888E+01
 0.59574639970E+01 0.48017867168E+01 0.38652575658E+01 0.31351422553E+01 0.27102013999E+01
 0.22682442521E+01 0.19641400000E+01 0.18432425224E+01 0.19277544396E+01 0.22211872488E+01
 0.27697829408E+01 0.37042850368E+01 0.52380215081E+01 0.76653861615E+01 0.11365598605E+02
 0.16785764196E+02 0.24463182922E+02 0.35155393054E+02 0.49891320244E+02 0.69543488167E+02
 0.93845771658E+02 0.12049344864E+03 0.14534176041E+03 0.16368509493E+03 0.17125644250E+03
 0.16653311183E+03 0.15152583151E+03 0.13024161676E+03 0.10678292316E+03 0.84805642186E+02
 0.66402620513E+02 0.51986405877E+02 0.40987384795E+02 0.32675352879E+02 0.26547593925E+02
 0.22263388835E+02 0.19468665730E+02 0.17749048340E+02 0.16686016558E+02 0.15919817693E+02
 0.15194048703E+02 0.14375343480E+02 0.13422899613E+02 0.12328171656E+02 0.11092321321E+02
 0.97529392492E+01 0.83922402966E+01 0.70941378474E+01 0.59075655490E+01 0.48602924640E+01
 0.39791385999E+01 0.32716363049E+01 0.28410465146E+01 0.23925144972E+01 0.20534449715E+01
 0.18675340228E+01 0.18694573401E+01 0.20674539591E+01 0.24825247426E+01 0.31983799369E+01
 0.43808935156E+01 0.62838595843E+01 0.92509748811E+01 0.13689725000E+02 0.20053544956E+02
 0.28933259718E+02 0.41200451210E+02 0.57859973686E+02 0.79322538271E+02 0.10438256404E+03
 0.12973657662E+03 0.15087581261E+03 0.16322658191E+03 0.16377094682E+03 0.15290865708E+03
 0.13400801040E+03 0.11126297129E+03 0.88670225455E+02 0.69028149574E+02 0.53374887325E+02
 0.41429895159E+02 0.32422596377E+02 0.25696270372E+02 0.20838173432E+02 0.17531467014E+02
 0.15427166716E+02 0.14141675547E+02 0.13318488646E+02 0.12684575754E+02 0.12074409425E+02
 0.11410696897E+02 0.10656913737E+02 0.97893530127E+01 0.88112459268E+01 0.77687862389E+01
 0.67286534637E+01 0.57420813635E+01 0.48404445579E+01 0.40502660508E+01 0.33873157134E+01
 0.29896701441E+01 0.25476086870E+01 0.21890662020E+01 0.19452355177E+01 0.18581220063E+01
 0.19554700284E+01 0.22524959827E+01 0.27883639940E+01 0.36695886558E+01 0.50969969916E+01
 0.73673603002E+01 0.10842137156E+02 0.15907703971E+02 0.23006652133E+02 0.32765609942E+02
 0.46031557815E+02 0.63501966896E+02 0.84902724904E+02 0.10820964388E+03 0.12965712698E+03
 0.14492076651E+03 0.15046091644E+03 0.14508922565E+03 0.13068483056E+03 0.11085819639E+03
 0.89590634603E+02 0.70096962654E+02 0.54024691300E+02 0.41564365782E+02 0.32121527977E+02
 0.25008168074E+02 0.19757102161E+02 0.16065093939E+02 0.13634468535E+02 0.12120474769E+02
 0.11184510229E+02 0.10556784427E+02 0.10056894060E+02 0.95801802367E+01 0.90694998102E+01
 0.84899321091E+01 0.78231455811E+01 0.70782611025E+01 0.62933646551E+01 0.55154345453E+01
 0.47793883302E+01 0.41060059345E+01 0.35081244521E+01 0.31879646753E+01 0.27621652463E+01
 0.23945295426E+01 0.21049527006E+01 0.19331848767E+01 0.19226756250E+01 0.20986355707E+01
 0.24779161534E+01 0.31141992342E+01 0.41438888340E+01 0.58010621037E+01 0.83945202252E+01
 0.12262850686E+02 0.17753764230E+02 0.25279991810E+02 0.35406091601E+02 0.48758493572E+02
 0.65557710183E+02 0.84900794945E+02 0.10433025082E+03 0.12023450856E+03 0.12908983702E+03
 0.12888431351E+03 0.11994499422E+03 0.10469424358E+03 0.86585577224E+02 0.68817912151E+02
 0.53429685143E+02 0.41104312769E+02 0.31592060258E+02 0.24337217257E+02 0.18888519613E+02
 0.14956352746E+02 0.12286652753E+02 0.10580350005E+02 0.95247296831E+01 0.88583594959E+01
 0.83978179364E+01 0.80277089880E+01 0.76799988323E+01 0.73124154069E+01 0.68936466385E+01
 0.64066340659E+01 0.58610176322E+01 0.52891477818E+01 0.47228680561E+01 0.41783409713E+01
 0.36633566931E+01 0.34640444679E+01 0.30644654231E+01 0.26949809227E+01 0.23741619207E+01
 0.21354286323E+01 0.20216054550E+01 0.20660777734E+01 0.22874667193E+01 0.27145330102E+01
 0.34266927763E+01 0.45835895594E+01 0.64269336130E+01 0.92495015710E+01 0.13347715654E+02
 0.19007185620E+02 0.26553361765E+02 0.36384993729E+02 0.48804302769E+02 0.63562594146E+02
 0.79359427443E+02 0.93762884866E+02 0.10384160604E+03 0.10728685282E+03 0.10339377985E+03
 0.93327027897E+02 0.79554152034E+02 0.64817736178E+02 0.51212563354E+02 0.39777096101E+02
 0.30652069279E+02 0.23538240929E+02 0.18092853731E+02 0.14069785780E+02 0.11261875029E+02
 0.94231131741E+01 0.82740626404E+01 0.75620963660E+01 0.71045437220E+01 0.67883913954E+01
 0.65458882649E+01 0.63295897018E+01 0.60989527185E+01 0.58229484405E+01 0.54911220346E+01
 0.51151171213E+01 0.47141184274E+01 0.43003884658E+01 0.38804779987E+01 0.38462389802E+01
 0.34826736530E+01 0.31186236839E+01 0.27772060476E+01 0.24876944602E+01 0.22834945009E+01
 0.21975248575E+01 0.22582067079E+01 0.24931200367E+01 0.29470214384E+01 0.37125538524E+01
 0.49562267827E+01 0.69128710508E+01 0.98402552114E+01 0.13968365349E+02 0.19495317472E+02
 0.26624499569E+02 0.35540817871E+02 0.46211278023E+02 0.58045111254E+02 0.69660473899E+02
 0.79053478698E+02 0.84234404032E+02 0.84037203384E+02 0.78627272435E+02 0.69399561131E+02
 0.58348427676E+02 0.47300472389E+02 0.37419711924E+02 0.29151952762E+02 0.22482577628E+02
 0.17243665658E+02 0.13277252496E+02 0.10437011466E+02 0.85345820376E+01 0.73315519378E+01
 0.65905242335E+01 0.61314954481E+01 0.58463295300E+01 0.56733803115E+01 0.55658462310E+01
 0.54787724531E+01 0.53739054323E+01 0.52278562848E+01 0.50331313979E+01 0.47921021672E+01
 0.45100650760E+01 0.41924388592E+01 0.43872603606E+01 0.40667217814E+01 0.37128232457E+01
 0.33513223589E+01 0.30106058352E+01 0.27206657628E+01 0.25142617061E+01 0.24247819720E+01
 0.24814036693E+01 0.27128391586E+01 0.31691565917E+01 0.39524717712E+01 0.52301993352E+01
 0.72114956993E+01 0.10098102383E+02 0.14046316843E+02 0.19164298801E+02 0.25517605514E+02
 0.33073886398E+02 0.41548762202E+02 0.50225654015E+02 0.57922429171E+02 0.63244444434E+02
 0.65074744927E+02 0.63045404315E+02 0.57698018968E+02 0.50230683345E+02 0.41997760896E+02
 0.34063267098E+02 0.27020022328E+02 0.21074684470E+02 0.16240694847E+02 0.12475834220E+02
 0.97095896965E+01 0.78141701018E+01 0.65985751701E+01 0.58525308542E+01 0.54050586508E+01
 0.51505700952E+01 0.50321775441E+01 0.50095384107E+01 0.50407625901E+01 0.50838629268E+01
 0.51049471026E+01 0.50819533122E+01 0.50027408601E+01 0.48613045201E+01 0.46553946289E+01
 0.51912499291E+01 0.49213127792E+01 0.45752056846E+01 0.41803981178E+01 0.37687959128E+01
 0.33771028464E+01 0.30446322122E+01 0.28069733308E+01 0.26913861756E+01 0.27202178579E+01
 0.29237046139E+01 0.33593455786E+01 0.41298802442E+01 0.53849234831E+01 0.72943210823E+01
 0.10002648432E+02 0.13594383887E+02 0.18086278220E+02 0.23421603783E+02 0.29421723419E+02
 0.35694268009E+02 0.41573250199E+02 0.46192335049E+02 0.48720939833E+02 0.48668467098E+02
 0.46086870066E+02 0.41545826900E+02 0.35893983441E+02 0.29951738518E+02 0.24305871751E+02
 0.19279802007E+02 0.15021614936E+02 0.11594775141E+02 0.90054281745E+01 0.71871896428E+01
 0.60008436874E+01 0.52735326450E+01 0.48527610723E+01 0.46376619718E+01 0.45743797294E+01
 0.46306337799E+01 0.47729542597E+01 0.49600488012E+01 0.51499231818E+01 0.53085444277E+01
 0.54106850280E+01 0.54353239877E+01 0.53648820817E+01 0.64168142873E+01 0.62194805977E+01
 0.58786208447E+01 0.54272657751E+01 0.49090719336E+01 0.43741378008E+01 0.38730993379E+01
 0.34499086926E+01 0.31382821845E+01 0.29633071478E+01 0.29459725855E+01 0.31126578681E+01
 0.35131734111E+01 0.42380815596E+01 0.54138143872E+01 0.71675209564E+01 0.95838085663E+01
 0.12682645743E+02 0.16417220356E+02 0.20661261930E+02 0.25170028666E+02 0.29545234415E+02
 0.33257954568E+02 0.35755629099E+02 0.36622784192E+02 0.35723095549E+02 0.33249132082E+02
 0.29648873773E+02 0.25466430036E+02 0.21185121825E+02 0.17149986592E+02 0.13577895351E+02
 0.10599738053E+02 0.82792509371E+01 0.66049349411E+01 0.54902304132E+01 0.48047546903E+01
 0.44221546014E+01 0.42538103999E+01 0.42526540810E+01 0.43945385694E+01 0.46555506785E+01
 0.50002773024E+01 0.53843903696E+01 0.57630447073E+01 0.60944084278E+01 0.63376458840E+01
 0.64541809867E+01 0.82446728716E+01 0.81752203151E+01 0.78595201966E+01 0.73351744748E+01
 0.66642046992E+01 0.59180449536E+01 0.51673856863E+01 0.44773872935E+01 0.39030494387E+01
 0.34826265096E+01 0.32342430751E+01 0.31632309829E+01 0.32813882034E+01 0.36284357015E+01
 0.42795948599E+01 0.53295048018E+01 0.68594846167E+01 0.89072992031E+01 0.11452141170E+02
 0.14408818252E+02 0.17617388907E+02 0.20829677934E+02 0.23715117484E+02 0.25908055459E+02
 0.27092648123E+02 0.27092430786E+02 0.25923341802E+02 0.23785350848E+02 0.20997370829E+02
 0.17907438426E+02 0.14819883957E+02 0.11964271017E+02 0.94979454177E+01 0.75142370045E+01
 0.60403846449E+01 0.50365304930E+01 0.44152952120E+01 0.40808832447E+01 0.39639276863E+01
 0.40308251038E+01 0.42690155573E+01 0.46659780055E+01 0.51964021201E+01 0.58196170689E+01
 0.64823618943E+01 0.71225536889E+01 0.76728830735E+01 0.80660599586E+01 0.10827938552E+02
 0.10989832675E+02 0.10766387334E+02 0.10186010728E+02 0.93249341603E+01 0.82864858075E+01
 0.71809191720E+01 0.61118003073E+01 0.51656627489E+01 0.44022876619E+01 0.38497430199E+01
 0.35094677150E+01 0.33711151412E+01 0.34321013593E+01 0.37144987618E+01 0.42693705972E+01
 0.51607350064E+01 0.64344149647E+01 0.80910385711E+01 0.10077996783E+02 0.12293911267E+02
 0.14588808046E+02 0.16759875600E+02 0.18564114583E+02 0.19763235618E+02 0.20186432624E+02
 0.19777932527E+02 0.18607447495E+02 0.16845596192E+02 0.14719448828E+02 0.12464182031E+02
 0.10284802571E+02 0.83364833167E+01 0.67203082679E+01 0.54834066426E+01 0.46198711422E+01
 0.40816111214E+01 0.38054245611E+01 0.37443795013E+01 0.38824276880E+01 0.42248669495E+01
 0.47772646608E+01 0.55291001598E+01 0.64469062865E+01 0.74728841420E+01 0.85261647603E+01
 0.95075108986E+01 0.10308758324E+02 0.14258335508E+02 0.14814663134E+02 0.14812059047E+02
 0.14248137327E+02 0.13200133774E+02 0.11807821172E+02 0.10239596538E+02 0.86562654928E+01
 0.71882932072E+01 0.59293598885E+01 0.49362726399E+01 0.42277941953E+01 0.37876502463E+01
 0.35809622168E+01 0.35812608212E+01 0.37910109438E+01 0.42398669840E+01 0.49619069402E+01
 0.59689375659E+01 0.72364040606E+01 0.87036384981E+01 0.10277755758E+02 0.11833662208E+02
 0.13216509764E+02 0.14259557997E+02 0.14819748397E+02 0.14816019089E+02 0.14250453792E+02
 0.13204160735E+02 0.11814520277E+02 0.10245203082E+02 0.86571206726E+01 0.71855507828E+01
 0.59270445727E+01 0.49359293266E+01 0.42269689673E+01 0.37832916421E+01 0.35727659284E+01
 0.35715158403E+01 0.37821407113E+01 0.42322940646E+01 0.49538569221E+01 0.59587546864E+01
 0.72257862620E+01 0.86977017183E+01 0.10280069954E+02 0.11841264310E+02 0.13221882962E+02
 0.18562596687E+02 0.19756852894E+02 0.20182666953E+02 0.19778163095E+02 0.18605949836E+02
 0.16838743682E+02 0.14711245468E+02 0.12460692957E+02 0.10286476980E+02 0.83389656222E+01
 0.67208432164E+01 0.54832130941E+01 0.46210896858E+01 0.40850715904E+01 0.38113636144E+01
 0.37523225238E+01 0.38896235111E+01 0.42276527701E+01 0.47756942072E+01 0.55282830032E+01
 0.64516755731E+01 0.74821369428E+01 0.85342910232E+01 0.95107256632E+01 0.10308259208E+02
 0.10827311508E+02 0.10991333235E+02 0.10769855878E+02 0.10189600389E+02 0.93263674939E+01
 0.82850844832E+01 0.71790567506E+01 0.61130174023E+01 0.51704827743E+01 0.44069218963E+01
 0.38496911103E+01 0.35034019132E+01 0.33606469344E+01 0.34193505657E+01 0.37012742692E+01
 0.42572331664E+01 0.51497380674E+01 0.64227706009E+01 0.80785597083E+01 0.10069194949E+02
 0.12294149025E+02 0.14596554052E+02 0.16766281259E+02 0.23702110774E+02 0.25897521723E+02
 0.27088871853E+02 0.27095152555E+02 0.25929818998E+02 0.23792411863E+02 0.21001786756E+02
 0.17906724574E+02 0.14814395750E+02 0.11957746315E+02 0.94944248701E+01 0.75143453721E+01
 0.60416464525E+01 0.50373657081E+01 0.44172514102E+01 0.40859122843E+01 0.39703926823E+01
 0.40340474657E+01 0.42664299347E+01 0.46607908203E+01 0.51950526850E+01 0.58255498971E+01
 0.64927955754E+01 0.71314093038E+01 0.76764177011E+01 0.80655202771E+01 0.82440762056E+01
 0.81772512259E+01 0.78635426543E+01 0.73385678446E+01 0.66651968270E+01 0.59174423022E+01
 0.51678286998E+01 0.44806882868E+01 0.39078126053E+01 0.34845688750E+01 0.32294730978E+01
 0.31515274598E+01 0.32659518465E+01 0.36123417475E+01 0.42633095402E+01 0.53126694860E+01
 0.68443669746E+01 0.88984295484E+01 0.11451374439E+02 0.14411747150E+02 0.17616398621E+02
 0.20820994867E+02 0.29529105846E+02 0.33245587442E+02 0.35751235335E+02 0.36624372670E+02
 0.35729028841E+02 0.33259681865E+02 0.29661144733E+02 0.25473536027E+02 0.21183352581E+02
 0.17143513390E+02 0.13573499757E+02 0.10599195394E+02 0.82796735379E+01 0.66044958586E+01
 0.54899955674E+01 0.48058675478E+01 0.44247340533E+01 0.42583836088E+01 0.42592516940E+01
 0.44000787955E+01 0.46557516544E+01 0.49955525726E+01 0.53807337475E+01 0.57650428537E+01
 0.60999560529E+01 0.63419367660E+01 0.64564207636E+01 0.64196176406E+01 0.62233805401E+01
 0.58815028226E+01 0.54290856967E+01 0.49128207853E+01 0.43807276199E+01 0.38786551765E+01
 0.34501634461E+01 0.31331443105E+01 0.29550019728E+01 0.29350346384E+01 0.30984329955E+01
 0.34964558384E+01 0.42202485489E+01 0.53948061364E+01 0.71481943984E+01 0.95691774211E+01
 0.12677934283E+02 0.16419745246E+02 0.20660737405E+02 0.25159586265E+02 0.35690451555E+02
 0.41579268504E+02 0.46204670653E+02 0.48730097906E+02 0.48667643711E+02 0.46078838740E+02
 0.41539815125E+02 0.35896091123E+02 0.29959848067E+02 0.24313592060E+02 0.19283234173E+02
 0.15021449908E+02 0.11593574291E+02 0.90046856331E+01 0.71867683547E+01 0.60001944441E+01
 0.52733674452E+01 0.48555434615E+01 0.46453114511E+01 0.45846842445E+01 0.46373579425E+01
 0.47716046474E+01 0.49532998409E+01 0.51453449352E+01 0.53106570722E+01 0.54171016504E+01
 0.54411863279E+01 0.53686505176E+01 0.51943800179E+01 0.49243105594E+01 0.45771417736E+01
 0.41818578654E+01 0.37720210737E+01 0.33820546946E+01 0.30472697832E+01 0.28033183454E+01
 0.26820064527E+01 0.27088148783E+01 0.29120133564E+01 0.33454921840E+01 0.41119119413E+01
 0.53642686526E+01 0.72749570440E+01 0.99875747371E+01 0.13583333514E+02 0.18076469565E+02
 0.23410885159E+02 0.29411796870E+02 0.41547206347E+02 0.50240453621E+02 0.57948824672E+02
 0.63267093048E+02 0.65079733334E+02 0.63032103564E+02 0.57678914890E+02 0.50219878190E+02
 0.42000016730E+02 0.34073132698E+02 0.27029176937E+02 0.21078823695E+02 0.16240703322E+02
 0.12474832134E+02 0.97098061610E+01 0.78156306251E+01 0.65997044148E+01 0.58521351112E+01
 0.54041943028E+01 0.51521542210E+01 0.50380850939E+01 0.50181609378E+01 0.50481607022E+01
 0.50875962642E+01 0.51062678205E+01 0.50839136015E+01 0.50066797066E+01 0.48658692160E+01
 0.46587723252E+01 0.43893907395E+01 0.40688033528E+01 0.37152014310E+01 0.33527507909E+01
 0.30097689494E+01 0.27178705453E+01 0.25111496380E+01 0.24224486285E+01 0.24790211781E+01
 0.27079909582E+01 0.31593352160E+01 0.39367065655E+01 0.52101684481E+01 0.71913062003E+01
 0.10081903907E+02 0.14034868497E+02 0.19154182853E+02 0.25505535387E+02 0.33062628397E+02
 0.46220512870E+02 0.58060405126E+02 0.69674479915E+02 0.79062128791E+02 0.84239923005E+02
 0.84043239945E+02 0.78632956775E+02 0.69400709712E+02 0.58344055854E+02 0.47295327955E+02
 0.37419129815E+02 0.29155902184E+02 0.22486606686E+02 0.17244951634E+02 0.13277566511E+02
 0.10439240892E+02 0.85380814096E+01 0.73326011251E+01 0.65872528360E+01 0.61271541616E+01
 0.58469129723E+01 0.56819822368E+01 0.55795366183E+01 0.54911182621E+01 0.53805749289E+01
 0.52297528116E+01 0.50342564590E+01 0.47950051600E+01 0.45139987509E+01 0.41955989987E+01
 0.38484698578E+01 0.34850896868E+01 0.31212420284E+01 0.27783559609E+01 0.24862216265E+01
 0.22807514943E+01 0.21963009849E+01 0.22595441242E+01 0.24944570880E+01 0.29437452841E+01
 0.37017594986E+01 0.49393642478E+01 0.68946825699E+01 0.98247720537E+01 0.13956090451E+02
 0.19484935218E+02 0.26617048916E+02 0.35540441362E+02 0.48818255129E+02 0.63582114281E+02
 0.79367026917E+02 0.93755884874E+02 0.10383802444E+03 0.10730382848E+03 0.10342636133E+03
 0.93354515272E+02 0.79563448195E+02 0.64813462799E+02 0.51206236795E+02 0.39774515419E+02
 0.30652880220E+02 0.23540981635E+02 0.18096075755E+02 0.14071749381E+02 0.11262936825E+02
 0.94262915155E+01 0.82803916924E+01 0.75677595700E+01 0.71059496962E+01 0.67881495628E+01
 0.65497696883E+01 0.63385507446E+01 0.61083156605E+01 0.58293305845E+01 0.54958975969E+01
 0.51201933456E+01 0.47185220627E+01 0.43030964113E+01 0.38831152559E+01 0.34679800883E+01
 0.30679270729E+01 0.26961733955E+01 0.23751217635E+01 0.21392469857E+01 0.20271955534E+01
 0.20692940715E+01 0.22864594534E+01 0.27102119378E+01 0.34187420232E+01 0.45708860930E+01
 0.64122497661E+01 0.92383580096E+01 0.13340746227E+02 0.18999334319E+02 0.26544237027E+02
 0.36383977360E+02 0.48763326208E+02 0.65561603872E+02 0.84901731547E+02 0.10433086472E+03
 0.12024177974E+03 0.12911003379E+03 0.12891660772E+03 0.11998023383E+03 0.10472120344E+03
 0.86598928529E+02 0.68820397231E+02 0.53427787592E+02 0.41103016932E+02 0.31592919291E+02
 0.24339223835E+02 0.18890082716E+02 0.14957664297E+02 0.12290629534E+02 0.10589816981E+02
 0.95378702669E+01 0.88687004315E+01 0.84006697571E+01 0.80258374656E+01 0.76808671163E+01
 0.73200167484E+01 0.69050981035E+01 0.64169083266E+01 0.58684674741E+01 0.52951070285E+01
 0.47280872411E+01 0.41823281620E+01 0.36663425383E+01 0.31910213185E+01 0.27653653807E+01
 0.23971002361E+01 0.21075571751E+01 0.19377723349E+01 0.19288723017E+01 0.21021509049E+01
 0.24745666355E+01 0.31048163400E+01 0.41334587249E+01 0.57932687733E+01 0.83888742259E+01
 0.12257387118E+02 0.17748775133E+02 0.25277899002E+02 0.35408297641E+02 0.46040580589E+02
 0.63498004514E+02 0.84894533432E+02 0.10821464718E+03 0.12967807846E+03 0.14494580680E+03
 0.15048378848E+03 0.14511547938E+03 0.13071630012E+03 0.11088441051E+03 0.89602231608E+02
 0.70098686304E+02 0.54026973573E+02 0.41568579153E+02 0.32122438924E+02 0.25006352178E+02
 0.19758764730E+02 0.16071194144E+02 0.13639930401E+02 0.12124838468E+02 0.11193910828E+02
 0.10572627608E+02 0.10071315382E+02 0.95875990025E+01 0.90753505798E+01 0.85015840940E+01
 0.78380304897E+01 0.70886817316E+01 0.62989580298E+01 0.55221472383E+01 0.47880838222E+01
 0.41113023053E+01 0.35088733534E+01 0.29916549052E+01 0.25534674603E+01 0.21937060320E+01