   9   9   0   0
  0.1317799E+02  0.4990690E-09  0.4990690E-09  0.5498364E-09  0.5000000E-15
  1.000000000000000E-004
  CAR 
 unknown system                          
     12.46305552    -19.92757995  301      1.13308115      1.00000000
    -19.928  0.0000E+00  0.0000E+00
    -19.820  0.0000E+00  0.0000E+00
    -19.712  0.0000E+00  0.0000E+00
    -19.604  0.0000E+00  0.0000E+00
    -19.496  0.0000E+00  0.0000E+00
    -19.388  0.0000E+00  0.0000E+00
    -19.280  0.0000E+00  0.0000E+00
    -19.172  0.0000E+00  0.0000E+00
    -19.064  0.0000E+00  0.0000E+00
    -18.956  0.1677E-11  0.1811E-12
    -18.848  0.3262E-07  0.3522E-08
    -18.740  0.6579E-04  0.7107E-05
    -18.632  0.1437E-01  0.1559E-02
    -18.524  0.3690E+00  0.4140E-01
    -18.416  0.1262E+01  0.1777E+00
    -18.308  0.6269E+00  0.2453E+00
    -18.200  0.8039E-01  0.2540E+00
    -18.092  0.1347E+01  0.3994E+00
    -17.984  0.7395E+01  0.1198E+01
    -17.876  0.7885E+01  0.2049E+01
    -17.768  0.1793E+01  0.2243E+01
    -17.660  0.5237E+00  0.2299E+01
    -17.552  0.4615E+01  0.2798E+01
    -17.444  0.7081E+01  0.3562E+01
    -17.336  0.1686E+01  0.3744E+01
    -17.228  0.2368E+00  0.3770E+01
    -17.120  0.2636E+01  0.4054E+01
    -17.012  0.7675E+01  0.4883E+01
    -16.904  0.6539E+01  0.5589E+01
    -16.796  0.1439E+01  0.5744E+01
    -16.689  0.8798E-01  0.5754E+01
    -16.581  0.1689E+01  0.5936E+01
    -16.473  0.1482E+02  0.7536E+01
    -16.365  0.2853E+02  0.1062E+02
    -16.257  0.1188E+02  0.1190E+02
    -16.149  0.9211E+00  0.1200E+02
    -16.041  0.1140E-01  0.1200E+02
    -15.933  0.1986E-04  0.1200E+02
    -15.825  0.4356E-08  0.1200E+02
    -15.717  0.1093E-12  0.1200E+02
    -15.609  0.0000E+00  0.1200E+02
    -15.501  0.0000E+00  0.1200E+02
    -15.393  0.0000E+00  0.1200E+02
    -15.285  0.0000E+00  0.1200E+02
    -15.177  0.0000E+00  0.1200E+02
    -15.069  0.0000E+00  0.1200E+02
    -14.961  0.0000E+00  0.1200E+02
    -14.853  0.0000E+00  0.1200E+02
    -14.745  0.0000E+00  0.1200E+02
    -14.637  0.0000E+00  0.1200E+02
    -14.529  0.0000E+00  0.1200E+02
    -14.421  0.0000E+00  0.1200E+02
    -14.313  0.0000E+00  0.1200E+02
    -14.205  0.0000E+00  0.1200E+02
    -14.097  0.0000E+00  0.1200E+02
    -13.989  0.0000E+00  0.1200E+02
    -13.881  0.0000E+00  0.1200E+02
    -13.773  0.0000E+00  0.1200E+02
    -13.665  0.0000E+00  0.1200E+02
    -13.557  0.0000E+00  0.1200E+02
    -13.449  0.0000E+00  0.1200E+02
    -13.341  0.0000E+00  0.1200E+02
    -13.234  0.0000E+00  0.1200E+02
    -13.126  0.0000E+00  0.1200E+02
    -13.018  0.0000E+00  0.1200E+02
    -12.910  0.0000E+00  0.1200E+02
    -12.802  0.0000E+00  0.1200E+02
    -12.694  0.0000E+00  0.1200E+02
    -12.586  0.0000E+00  0.1200E+02
    -12.478  0.0000E+00  0.1200E+02
    -12.370  0.0000E+00  0.1200E+02
    -12.262  0.0000E+00  0.1200E+02
    -12.154  0.0000E+00  0.1200E+02
    -12.046  0.0000E+00  0.1200E+02
    -11.938  0.0000E+00  0.1200E+02
    -11.830  0.0000E+00  0.1200E+02
    -11.722  0.0000E+00  0.1200E+02
    -11.614  0.0000E+00  0.1200E+02
    -11.506  0.0000E+00  0.1200E+02
    -11.398  0.0000E+00  0.1200E+02
    -11.290  0.0000E+00  0.1200E+02
    -11.182  0.0000E+00  0.1200E+02
    -11.074  0.0000E+00  0.1200E+02
    -10.966  0.0000E+00  0.1200E+02
    -10.858  0.0000E+00  0.1200E+02
    -10.750  0.0000E+00  0.1200E+02
    -10.642  0.0000E+00  0.1200E+02
    -10.534  0.0000E+00  0.1200E+02
    -10.426  0.0000E+00  0.1200E+02
    -10.318  0.0000E+00  0.1200E+02
    -10.210  0.0000E+00  0.1200E+02
    -10.102  0.0000E+00  0.1200E+02
     -9.994  0.0000E+00  0.1200E+02
     -9.886  0.0000E+00  0.1200E+02
     -9.779  0.0000E+00  0.1200E+02
     -9.671  0.0000E+00  0.1200E+02
     -9.563  0.0000E+00  0.1200E+02
     -9.455  0.0000E+00  0.1200E+02
     -9.347  0.0000E+00  0.1200E+02
     -9.239  0.0000E+00  0.1200E+02
     -9.131  0.0000E+00  0.1200E+02
     -9.023  0.2149E-11  0.1200E+02
     -8.915  0.3970E-07  0.1200E+02
     -8.807  0.7612E-04  0.1200E+02
     -8.699  0.1582E-01  0.1200E+02
     -8.591  0.3877E+00  0.1204E+02
     -8.483  0.1269E+01  0.1218E+02
     -8.375  0.6033E+00  0.1225E+02
     -8.267  0.3939E-01  0.1225E+02
     -8.159  0.3111E-03  0.1225E+02
     -8.051  0.2710E-06  0.1225E+02
     -7.943  0.4197E-05  0.1225E+02
     -7.835  0.3042E-02  0.1225E+02
     -7.727  0.2477E+00  0.1228E+02
     -7.619  0.2664E+01  0.1256E+02
     -7.511  0.6423E+01  0.1326E+02
     -7.403  0.7053E+01  0.1402E+02
     -7.295  0.2045E+01  0.1424E+02
     -7.187  0.8822E-01  0.1425E+02
     -7.079  0.4612E-03  0.1425E+02
     -6.971  0.6617E-06  0.1425E+02
     -6.863  0.5531E-03  0.1425E+02
     -6.755  0.8519E-01  0.1426E+02
     -6.647  0.1645E+01  0.1444E+02
     -6.539  0.5506E+01  0.1503E+02
     -6.431  0.5234E+01  0.1560E+02
     -6.324  0.1364E+01  0.1574E+02
     -6.216  0.5918E-01  0.1575E+02
     -6.108  0.3164E-03  0.1575E+02
     -6.000  0.5043E-06  0.1575E+02
     -5.892  0.4725E-03  0.1575E+02
     -5.784  0.7667E-01  0.1576E+02
     -5.676  0.1527E+01  0.1592E+02
     -5.568  0.4863E+01  0.1645E+02
     -5.460  0.4035E+01  0.1688E+02
     -5.352  0.1045E+01  0.1700E+02
     -5.244  0.7526E+00  0.1708E+02
     -5.136  0.3485E+01  0.1745E+02
     -5.028  0.2487E+01  0.1772E+02
     -4.920  0.3301E+00  0.1776E+02
     -4.812  0.1324E+01  0.1790E+02
     -4.704  0.5193E+01  0.1846E+02
     -4.596  0.1143E+02  0.1970E+02
     -4.488  0.1039E+02  0.2082E+02
     -4.380  0.5822E+01  0.2145E+02
     -4.272  0.5145E+01  0.2200E+02
     -4.164  0.6295E+01  0.2268E+02
     -4.056  0.2836E+01  0.2299E+02
     -3.948  0.2325E+01  0.2324E+02
     -3.840  0.5059E+01  0.2379E+02
     -3.732  0.1884E+01  0.2399E+02
     -3.624  0.9943E-01  0.2400E+02
     -3.516  0.6483E-03  0.2400E+02
     -3.408  0.4719E-06  0.2400E+02
     -3.300  0.3624E-10  0.2400E+02
     -3.192  0.0000E+00  0.2400E+02
     -3.084  0.0000E+00  0.2400E+02
     -2.976  0.0000E+00  0.2400E+02
     -2.869  0.7613E-11  0.2400E+02
     -2.761  0.1442E-06  0.2400E+02
     -2.653  0.2915E-03  0.2400E+02
     -2.545  0.6643E-01  0.2401E+02
     -2.437  0.1887E+01  0.2421E+02
     -2.329  0.8153E+01  0.2509E+02
     -2.221  0.8281E+01  0.2599E+02
     -2.113  0.6153E+01  0.2665E+02
     -2.005  0.7086E+01  0.2741E+02
     -1.897  0.6729E+01  0.2814E+02
     -1.789  0.8062E+01  0.2901E+02
     -1.681  0.4753E+01  0.2952E+02
     -1.573  0.5086E+01  0.3007E+02
     -1.465  0.5040E+01  0.3062E+02
     -1.357  0.7915E+01  0.3147E+02
     -1.249  0.1242E+02  0.3281E+02
     -1.141  0.7591E+01  0.3363E+02
     -1.033  0.5829E+01  0.3426E+02
     -0.925  0.7018E+01  0.3502E+02
     -0.817  0.8787E+01  0.3597E+02
     -0.709  0.9918E+01  0.3704E+02
     -0.601  0.4710E+01  0.3755E+02
     -0.493  0.5189E+01  0.3811E+02
     -0.385  0.1015E+02  0.3920E+02
     -0.277  0.1269E+02  0.4057E+02
     -0.169  0.9522E+01  0.4160E+02
     -0.061  0.1076E+02  0.4276E+02
      0.047  0.8218E+01  0.4365E+02
      0.155  0.5524E+01  0.4425E+02
      0.263  0.2281E+01  0.4449E+02
      0.371  0.2736E+01  0.4479E+02
      0.479  0.1021E+02  0.4589E+02
      0.586  0.1050E+02  0.4703E+02
      0.694  0.6477E+01  0.4773E+02
      0.802  0.2369E+01  0.4798E+02
      0.910  0.1733E+00  0.4800E+02
      1.018  0.1654E-02  0.4800E+02
      1.126  0.1777E-05  0.4800E+02
      1.234  0.2010E-09  0.4800E+02
      1.342  0.2314E-14  0.4800E+02
      1.450  0.0000E+00  0.4800E+02
      1.558  0.0000E+00  0.4800E+02
      1.666  0.0000E+00  0.4800E+02
      1.774  0.0000E+00  0.4800E+02
      1.882  0.0000E+00  0.4800E+02
      1.990  0.0000E+00  0.4800E+02
      2.098  0.0000E+00  0.4800E+02
      2.206  0.0000E+00  0.4800E+02
      2.314  0.0000E+00  0.4800E+02
      2.422  0.0000E+00  0.4800E+02
      2.530  0.0000E+00  0.4800E+02
      2.638  0.0000E+00  0.4800E+02
      2.746  0.0000E+00  0.4800E+02
      2.854  0.0000E+00  0.4800E+02
      2.962  0.0000E+00  0.4800E+02
      3.070  0.0000E+00  0.4800E+02
      3.178  0.0000E+00  0.4800E+02
      3.286  0.0000E+00  0.4800E+02
      3.394  0.0000E+00  0.4800E+02
      3.502  0.0000E+00  0.4800E+02
      3.610  0.0000E+00  0.4800E+02
      3.718  0.0000E+00  0.4800E+02
      3.826  0.0000E+00  0.4800E+02
      3.934  0.0000E+00  0.4800E+02
      4.041  0.0000E+00  0.4800E+02
      4.149  0.0000E+00  0.4800E+02
      4.257  0.0000E+00  0.4800E+02
      4.365  0.0000E+00  0.4800E+02
      4.473  0.0000E+00  0.4800E+02
      4.581  0.0000E+00  0.4800E+02
      4.689  0.0000E+00  0.4800E+02
      4.797  0.0000E+00  0.4800E+02
      4.905  0.0000E+00  0.4800E+02
      5.013  0.0000E+00  0.4800E+02
      5.121  0.0000E+00  0.4800E+02
      5.229  0.0000E+00  0.4800E+02
      5.337  0.0000E+00  0.4800E+02
      5.445  0.0000E+00  0.4800E+02
      5.553  0.0000E+00  0.4800E+02
      5.661  0.0000E+00  0.4800E+02
      5.769  0.1799E-14  0.4800E+02
      5.877  0.1298E-09  0.4800E+02
      5.985  0.9877E-06  0.4800E+02
      6.093  0.7910E-03  0.4800E+02
      6.201  0.7056E-01  0.4801E+02
      6.309  0.7765E+00  0.4809E+02
      6.417  0.1194E+01  0.4822E+02
      6.525  0.2656E+00  0.4825E+02
      6.633  0.7722E-02  0.4825E+02
      6.741  0.2602E-04  0.4825E+02
      6.849  0.9421E-08  0.4825E+02
      6.957  0.3522E-12  0.4825E+02
      7.065  0.0000E+00  0.4825E+02
      7.173  0.0000E+00  0.4825E+02
      7.281  0.0000E+00  0.4825E+02
      7.389  0.0000E+00  0.4825E+02
      7.496  0.0000E+00  0.4825E+02
      7.604  0.0000E+00  0.4825E+02
      7.712  0.5321E-12  0.4825E+02
      7.820  0.1504E-07  0.4825E+02
      7.928  0.4390E-04  0.4825E+02
      8.036  0.1376E-01  0.4825E+02
      8.144  0.4985E+00  0.4831E+02
      8.252  0.2356E+01  0.4856E+02
      8.360  0.1697E+01  0.4874E+02
      8.468  0.1744E+01  0.4893E+02
      8.576  0.3849E+01  0.4935E+02
      8.684  0.1359E+01  0.4949E+02
      8.792  0.3781E+00  0.4953E+02
      8.900  0.2714E+01  0.4983E+02
      9.008  0.3318E+01  0.5019E+02
      9.116  0.6264E+00  0.5025E+02
      9.224  0.1129E+01  0.5038E+02
      9.332  0.3833E+01  0.5079E+02
      9.440  0.2984E+01  0.5111E+02
      9.548  0.3987E+01  0.5154E+02
      9.656  0.3087E+01  0.5187E+02
      9.764  0.3720E+01  0.5228E+02
      9.872  0.1995E+01  0.5249E+02
      9.980  0.1996E+01  0.5271E+02
     10.088  0.7600E+01  0.5353E+02
     10.196  0.1196E+02  0.5482E+02
     10.304  0.8723E+01  0.5576E+02
     10.412  0.5200E+01  0.5632E+02
     10.520  0.4579E+01  0.5682E+02
     10.628  0.3425E+01  0.5719E+02
     10.736  0.5773E+00  0.5725E+02
     10.844  0.1986E+00  0.5727E+02
     10.951  0.2144E+01  0.5750E+02
     11.059  0.3642E+01  0.5789E+02
     11.167  0.9398E+00  0.5800E+02
     11.275  0.3344E-01  0.5800E+02
     11.383  0.1441E-03  0.5800E+02
     11.491  0.6882E-07  0.5800E+02
     11.599  0.3460E-11  0.5800E+02
     11.707  0.0000E+00  0.5800E+02
     11.815  0.0000E+00  0.5800E+02
     11.923  0.0000E+00  0.5800E+02
     12.031  0.0000E+00  0.5800E+02
     12.139  0.0000E+00  0.5800E+02
     12.247  0.0000E+00  0.5800E+02
     12.355  0.0000E+00  0.5800E+02
     12.463  0.0000E+00  0.5800E+02
