    9    9    1    1
  0.1317799E+02  0.4990690E-09  0.4990690E-09  0.5498364E-09  0.5000000E-15
  1.000000000000000E-004
  CAR 
 unknown system                          
   48    6   29
 
  0.0000000E+00  0.0000000E+00  0.0000000E+00  0.1250000E+00
   1      -18.455278
   2      -17.025694
   3      -17.023437
   4      -16.412285
   5      -16.378949
   6      -16.376486
   7       -7.477248
   8       -7.474859
   9       -4.658262
  10       -4.599518
  11       -4.440227
  12       -4.439310
  13       -2.088131
  14       -2.086565
  15       -1.833432
  16       -1.704266
  17       -0.762531
  18       -0.761331
  19       -0.676708
  20       -0.251783
  21       -0.251204
  22        0.026604
  23        0.425687
  24        0.426447
  25        6.333022
  26        9.741601
  27        9.742087
  28       10.129904
  29       10.130398
 
  0.5000000E+00  0.2775558E-16  0.0000000E+00  0.2500000E+00
   1      -17.997610
   2      -17.541556
   3      -16.968408
   4      -16.476801
   5      -16.439095
   6      -16.405510
   7       -7.600258
   8       -6.595898
   9       -5.154384
  10       -4.634508
  11       -4.621994
  12       -3.889108
  13       -2.249938
  14       -2.078484
  15       -1.862284
  16       -1.459119
  17       -1.298282
  18       -0.985210
  19       -0.867990
  20       -0.359460
  21       -0.308148
  22       -0.032554
  23        0.431920
  24        0.662983
  25        8.517776
  26        9.292653
  27       10.030910
  28       10.188793
  29       10.990754
 
  0.5000000E+00  0.5000000E+00  0.0000000E+00  0.1250000E+00
   1      -17.995804
   2      -17.543343
   3      -16.970232
   4      -16.477220
   5      -16.440266
   6      -16.402081
   7       -7.598833
   8       -6.597185
   9       -5.155710
  10       -4.632720
  11       -4.621805
  12       -3.889848
  13       -2.249568
  14       -2.080076
  15       -1.862032
  16       -1.458815
  17       -1.299043
  18       -0.985433
  19       -0.867017
  20       -0.359986
  21       -0.307736
  22       -0.033275
  23        0.432253
  24        0.663729
  25        8.517640
  26        9.291695
  27       10.031115
  28       10.191151
  29       10.964293
 
  0.0000000E+00  0.0000000E+00  0.5000000E+00  0.1250000E+00
   1      -18.018927
   2      -18.016371
   3      -16.434101
   4      -16.405832
   5      -16.403589
   6      -16.352975
   7       -8.524585
   8       -5.516531
   9       -5.514313
  10       -4.771815
  11       -4.769841
  12       -3.921280
  13       -1.926439
  14       -1.925282
  15       -1.820994
  16       -1.171978
  17       -1.171546
  18       -1.062554
  19       -1.061780
  20       -0.758004
  21       -0.418347
  22        0.486703
  23        0.488542
  24        0.598104
  25        8.229760
  26        8.231858
  27        9.686754
  28       10.100049
  29       10.101095
 
  0.5000000E+00  0.2775558E-16  0.5000000E+00  0.2500000E+00
   1      -17.934167
   2      -17.511884
   3      -17.088871
   4      -16.494514
   5      -16.426695
   6      -16.396107
   7       -7.462486
   8       -6.491792
   9       -5.621172
  10       -4.518316
  11       -4.283347
  12       -4.186192
  13       -2.371336
  14       -2.345521
  15       -1.614603
  16       -1.328107
  17       -1.285988
  18       -0.782918
  19       -0.519332
  20       -0.395431
  21       -0.138755
  22       -0.114915
  23        0.121771
  24        0.519204
  25        8.911428
  26        9.508180
  27       10.211910
  28       10.369260
  29       10.531109
 
  0.5000000E+00  0.5000000E+00  0.5000000E+00  0.1250000E+00
   1      -17.932123
   2      -17.513741
   3      -17.090674
   4      -16.495547
   5      -16.427064
   6      -16.393118
   7       -7.460543
   8       -6.493207
   9       -5.623170
  10       -4.516108
  11       -4.284083
  12       -4.185981
  13       -2.371341
  14       -2.346047
  15       -1.614209
  16       -1.327323
  17       -1.285280
  18       -0.784640
  19       -0.520551
  20       -0.396060
  21       -0.138567
  22       -0.114521
  23        0.121047
  24        0.521107
  25        8.911282
  26        9.508674
  27       10.214400
  28       10.372895
  29       10.528748
