       N       E                     dE             d eps       ncg     rms          rms(c)
DAV:   1     0.271400122643E+03    0.27140E+03   -0.22331E+04   348   0.125E+03
DAV:   2    -0.625794315977E+02   -0.33398E+03   -0.32325E+03   479   0.307E+02
DAV:   3    -0.806774846318E+02   -0.18098E+02   -0.18043E+02   408   0.826E+01
DAV:   4    -0.809089791971E+02   -0.23149E+00   -0.23101E+00   408   0.101E+01
DAV:   5    -0.809136740070E+02   -0.46948E-02   -0.46933E-02   393   0.142E+00    0.182E+01
DAV:   6    -0.717081071388E+02    0.92056E+01   -0.41567E+01   398   0.351E+01    0.522E+00
DAV:   7    -0.717237294000E+02   -0.15622E-01   -0.96377E-01   425   0.539E+00    0.323E+00
DAV:   8    -0.717336824193E+02   -0.99530E-02   -0.10618E-01   403   0.285E+00    0.322E-01
DAV:   9    -0.717350968442E+02   -0.14144E-02   -0.11304E-02   403   0.656E-01    0.121E-01
DAV:  10    -0.717367972983E+02   -0.17005E-02   -0.30317E-03   398   0.315E-01    0.679E-02
DAV:  11    -0.717368114039E+02   -0.14106E-04   -0.42036E-04   408   0.130E-01
   1 F= -.71736811E+02 E0= -.71736811E+02  d E =-.547602E-11
