<?xml version="1.0" encoding="ISO-8859-1"?>
<modeling>
 <generator>
  <i name="program" type="string">vasp </i>
  <i name="version" type="string">5.2.2  </i>
  <i name="subversion" type="string">15Apr09 complex  parallel </i>
  <i name="platform" type="string">LinuxIFC </i>
  <i name="date" type="string">2009 06 18 </i>
  <i name="time" type="string">22:42:34 </i>
 </generator>
 <incar>
  <i type="int" name="ISTART">     0</i>
  <i type="string" name="PREC">normal</i>
  <i type="int" name="ICHARG">     2</i>
  <i name="EDIFF">      0.00010000</i>
  <i name="ENCUT">    400.00000000</i>
  <i type="logical" name="LREAL"> T  </i>
  <i type="int" name="ISMEAR">     0</i>
  <i name="SIGMA">      0.10000000</i>
  <i type="logical" name="LPEAD"> F  </i>
  <i type="logical" name="LCALCPOL"> F  </i>
  <i type="logical" name="LCALCEPS"> F  </i>
  <v name="EFIELD_PEAD">      0.00000000      0.00000000      0.00000000</v>
  <i type="string" name="GGA">91</i>
  <i type="logical" name="LEFG"> F  </i>
 </incar>
 <kpoints>
  <generation param="Gamma">
   <v type="int" name="divisions">       2        2        2 </v>
   <v name="usershift">      0.00000000       0.00000000       0.00000000 </v>
   <v name="genvec1">      0.50000000       0.00000000       0.00000000 </v>
   <v name="genvec2">      0.00000000       0.50000000       0.00000000 </v>
   <v name="genvec3">      0.00000000       0.00000000       0.50000000 </v>
   <v name="shift">      0.00000000       0.00000000       0.00000000 </v>
  </generation>
  <varray name="kpointlist" >
   <v>       0.00000000       0.00000000       0.00000000 </v>
   <v>       0.50000000       0.00000000       0.00000000 </v>
   <v>       0.50000000       0.50000000       0.00000000 </v>
   <v>       0.00000000       0.00000000       0.50000000 </v>
   <v>       0.50000000       0.00000000       0.50000000 </v>
   <v>       0.50000000       0.50000000       0.50000000 </v>
  </varray>
  <varray name="weights" >
   <v>       0.12500000 </v>
   <v>       0.25000000 </v>
   <v>       0.12500000 </v>
   <v>       0.12500000 </v>
   <v>       0.25000000 </v>
   <v>       0.12500000 </v>
  </varray>
 </kpoints>
 <parameters>
  <separator name="general" >
   <i type="string" name="SYSTEM">unknown system</i>
   <i type="logical" name="LCOMPAT"> F  </i>
  </separator>
  <separator name="electronic" >
   <i type="string" name="PREC">normal</i>
   <i name="ENMAX">    400.00000000</i>
   <i name="ENAUG">    605.39200000</i>
   <i name="EDIFF">      0.00010000</i>
   <i type="int" name="IALGO">    38</i>
   <i type="int" name="IWAVPR">    10</i>
   <i type="int" name="NBANDS">    29</i>
   <i name="NELECT">     48.00000000</i>
   <separator name="electronic smearing" >
    <i type="int" name="ISMEAR">     0</i>
    <i name="SIGMA">      0.10000000</i>
   </separator>
   <separator name="electronic projectors" >
    <i type="logical" name="LREAL"> T  </i>
    <v name="ROPT">      0.00000000      0.00000000</v>
    <i type="int" name="LMAXPAW">  -100</i>
    <i type="int" name="LMAXMIX">     2</i>
   </separator>
   <separator name="electronic startup" >
    <i type="int" name="ISTART">     0</i>
    <i type="int" name="ICHARG">     2</i>
    <i type="int" name="INIWAV">     1</i>
   </separator>
   <separator name="electronic spin" >
    <i type="int" name="ISPIN">     1</i>
    <i type="logical" name="LNONCOLLINEAR"> F  </i>
    <v name="MAGMOM">      1.00000000      1.00000000      1.00000000      1.00000000      1.00000000      1.00000000      1.00000000      1.00000000      1.00000000</v>
    <i name="NUPDOWN">     -1.00000000</i>
    <i type="logical" name="LSORBIT"> F  </i>
    <v name="SAXIS">      0.00000000      0.00000000      1.00000000</v>
    <i type="logical" name="LSPIRAL"> F  </i>
    <v name="QSPIRAL">      0.00000000      0.00000000      0.00000000</v>
    <i type="logical" name="LZEROZ"> F  </i>
   </separator>
   <separator name="electronic exchange-correlation" >
    <i type="logical" name="LASPH"> F  </i>
    <i type="logical" name="LMETAGGA"> F  </i>
   </separator>
   <separator name="electronic convergence" >
    <i type="int" name="NELM">    60</i>
    <i type="int" name="NELMDL">    -5</i>
    <i type="int" name="NELMIN">     2</i>
    <i name="ENINI">    400.00000000</i>
    <separator name="electronic convergence detail" >
     <i type="logical" name="LDIAG"> T  </i>
     <i name="WEIMIN">      0.00000000</i>
     <i name="EBREAK">      0.00000086</i>
     <i name="DEPER">      0.30000000</i>
     <i type="int" name="NRMM">     4</i>
     <i name="TIME">      0.40000000</i>
    </separator>
   </separator>
   <separator name="electronic mixer" >
    <i name="AMIX">      0.40000000</i>
    <i name="BMIX">      1.00000000</i>
    <i name="AMIN">      0.10000000</i>
    <i name="AMIX_MAG">      1.60000000</i>
    <i name="BMIX_MAG">      1.00000000</i>
    <separator name="electronic mixer details" >
     <i type="int" name="IMIX">     4</i>
     <i type="int" name="MAXMIX">   -45</i>
     <i name="WC">    100.00000000</i>
     <i type="int" name="INIMIX">     1</i>
     <i type="int" name="MIXPRE">     1</i>
     <i type="int" name="MREMOVE">     5</i>
    </separator>
   </separator>
   <separator name="electronic dipolcorrection" >
    <i type="logical" name="LDIPOL"> F  </i>
    <i type="logical" name="LMONO"> F  </i>
    <i type="int" name="IDIPOL">     0</i>
    <i name="EPSILON">      1.00000000</i>
    <v name="DIPOL">   -100.00000000   -100.00000000   -100.00000000</v>
    <i name="EFIELD">      0.00000000</i>
   </separator>
  </separator>
  <separator name="grids" >
   <i type="int" name="NGX">    24</i>
   <i type="int" name="NGY">    24</i>
   <i type="int" name="NGZ">    28</i>
   <i type="int" name="NGXF">    48</i>
   <i type="int" name="NGYF">    48</i>
   <i type="int" name="NGZF">    56</i>
   <i type="logical" name="ADDGRID"> F  </i>
  </separator>
  <separator name="ionic" >
   <i type="int" name="NSW">     0</i>
   <i type="int" name="IBRION">    -1</i>
   <i type="int" name="ISIF">     2</i>
   <i name="PSTRESS">      0.00000000</i>
   <i name="EDIFFG">      0.00100000</i>
   <i type="int" name="NFREE">     0</i>
   <i name="POTIM">      0.50000000</i>
   <i name="SMASS">     -3.00000000</i>
  </separator>
  <separator name="ionic md" >
   <i name="TEBEG">      0.00010000</i>
   <i name="TEEND">      0.00010000</i>
   <i type="int" name="NBLOCK">     1</i>
   <i type="int" name="KBLOCK">     1</i>
   <i type="int" name="NPACO">   256</i>
   <i name="APACO">     16.00000000</i>
  </separator>
  <separator name="symmetry" >
   <i type="int" name="ISYM">     2</i>
   <i name="SYMPREC">      0.00001000</i>
  </separator>
  <separator name="dos" >
   <i type="logical" name="LORBIT"> F  </i>
   <v name="RWIGS">     -1.00000000     -1.00000000</v>
   <i type="int" name="NEDOS">   301</i>
   <i name="EMIN">     10.00000000</i>
   <i name="EMAX">    -10.00000000</i>
   <i name="EFERMI">      0.00000000</i>
  </separator>
  <separator name="writing" >
   <i type="int" name="NWRITE">     2</i>
   <i type="logical" name="LWAVE"> T  </i>
   <i type="logical" name="LCHARG"> T  </i>
   <i type="logical" name="LPARD"> F  </i>
   <i type="logical" name="LVTOT"> F  </i>
   <i type="logical" name="LELF"> F  </i>
   <i type="logical" name="LOPTICS"> F  </i>
   <v name="STM">      0.00000000      0.00000000      0.00000000      0.00000000      0.00000000</v>
  </separator>
  <separator name="performance" >
   <i type="int" name="NPAR">     1</i>
   <i type="int" name="NSIM">     4</i>
   <i type="int" name="NBLK">    32</i>
   <i type="logical" name="LPLANE"> T  </i>
   <i type="logical" name="LSCALAPACK"> F  </i>
   <i type="logical" name="LSCAAWARE"> F  </i>
   <i type="logical" name="LSCALU"> F  </i>
   <i type="logical" name="LASYNC"> F  </i>
  </separator>
  <separator name="miscellaneous" >
   <i type="int" name="IDIOT">     3</i>
   <i type="logical" name="LMUSIC"> F  </i>
   <v name="POMASS">     16.00000000     28.08500000</v>
   <i type="logical" name="LCORR"> T  </i>
  </separator>
  <i type="logical" name="LREAL_COMPAT"> F  </i>
  <i type="logical" name="GGA_COMPAT"> T  </i>
  <i type="logical" name="LBERRY"> F  </i>
  <i type="int" name="ICORELEVEL">     0</i>
  <i type="logical" name="LDAU"> F  </i>
  <i type="int" name="I_CONSTRAINED_M">     0</i>
  <separator name="electronic exchange-correlation" >
   <i type="string" name="GGA">91</i>
   <i type="int" name="VOSKOWN">     0</i>
   <i type="logical" name="LHFCALC"> F  </i>
   <i type="logical" name="LHFONE"> F  </i>
   <i type="logical" name="LRHFCALC"> F  </i>
   <i type="logical" name="LTHOMAS"> F  </i>
   <i type="logical" name="LMODELHF"> F  </i>
   <i name="ENCUTFOCK">      0.00000000</i>
   <i name="ENCUT4O">     -1.00000000</i>
   <i type="int" name="EXXOEP">     0</i>
   <i type="int" name="FOURORBIT">     0</i>
   <i name="AEXX">      0.00000000</i>
   <i name="HFALPHA">      0.00000000</i>
   <i name="ALDAX">      1.00000000</i>
   <i name="AGGAX">      1.00000000</i>
   <i name="ALDAC">      1.00000000</i>
   <i name="AGGAC">      1.00000000</i>
   <i type="int" name="NKREDX">     1</i>
   <i type="int" name="NKREDY">     1</i>
   <i type="int" name="NKREDZ">     1</i>
   <i type="logical" name="SHIFTRED"> F  </i>
   <i type="logical" name="ODDONLY"> F  </i>
   <i type="logical" name="EVENONLY"> F  </i>
   <i type="int" name="LMAXFOCK">     0</i>
   <i type="int" name="NMAXFOCKAE">     0</i>
   <i name="HFSCREEN">      0.00000000</i>
   <i name="HFSCREENC">      0.00000000</i>
  </separator>
  <separator name="model GW" >
   <i type="int" name="MODEL_GW">     0</i>
   <i name="MODEL_EPS0">      7.90679505</i>
   <i name="MODEL_ALPHA">      1.00000000</i>
  </separator>
  <separator name="linear response parameters" >
   <i type="logical" name="LEPSILON"> F  </i>
   <i type="logical" name="LRPA"> F  </i>
   <i type="logical" name="LNABLA"> F  </i>
   <i type="logical" name="LVEL"> F  </i>
   <i type="int" name="KINTER">     0</i>
   <i name="CSHIFT">      0.10000000</i>
   <i name="OMEGAMAX">     -1.00000000</i>
  </separator>
  <separator name="orbital magnetization" >
   <i type="logical" name="ORBITALMAG"> F  </i>
   <i type="logical" name="LMAGBLOCH"> F  </i>
   <i type="logical" name="LCHIMAG"> F  </i>
   <i type="logical" name="LGAUGE"> T  </i>
   <i type="int" name="MAGATOM">     0</i>
   <v name="MAGDIPOL">      0.00000000      0.00000000      0.00000000</v>
   <v name="AVECCONST">      0.00000000      0.00000000      0.00000000</v>
  </separator>
  <separator name="response functions" >
   <i type="logical" name="LRPA"> T  </i>
   <i type="logical" name="LTCTE"> F  </i>
   <i type="logical" name="LTETE"> F  </i>
   <i type="logical" name="L2ORDER"> F  </i>
   <i type="logical" name="LGWLF"> F  </i>
   <i name="ENCUTGW">    266.66666667</i>
   <i name="ENCUTGWSOFT">     -2.00000000</i>
   <i name="ENCUTLF">     -1.00000000</i>
   <i type="int" name="LMAXMP2">    -1</i>
   <i name="SCISSOR">      0.00000000</i>
   <i type="int" name="NOMEGA">     0</i>
   <i type="int" name="NOMEGAR">     0</i>
   <i type="int" name="NBANDSGW">    -1</i>
   <i type="int" name="NBANDSLF">    -1</i>
   <i type="int" name="NELM">     1</i>
   <i type="int" name="DIM">     3</i>
   <i type="int" name="ANTIRES">     0</i>
   <i type="logical" name="LUSEW"> F  </i>
   <i name="OMEGAMAX">    -30.00000000</i>
   <i name="OMEGATL">   -200.00000000</i>
   <i type="int" name="OMEGAGRID">     0</i>
   <i name="CSHIFT">     -0.10000000</i>
   <i type="logical" name="SELFENERGY"> F  </i>
   <i type="logical" name="LSPECTRAL"> F  </i>
   <i type="logical" name="ODDONLYGW"> F  </i>
   <i type="logical" name="EVENONLYGW"> F  </i>
   <i type="int" name="NKREDLFX">     1</i>
   <i type="int" name="NKREDLFY">     1</i>
   <i type="int" name="NKREDLFZ">     1</i>
   <i type="int" name="MAXMEM">  1024</i>
   <i type="int" name="TELESCOPE">     0</i>
  </separator>
 </parameters>
 <atominfo>
  <atoms>       9 </atoms>
  <types>       2 </types>
  <array name="atoms" >
   <dimension dim="1">ion</dimension>
   <field type="string">element</field>
   <field type="int">atomtype</field>
   <set>
    <rc><c>O </c><c>   1</c></rc>
    <rc><c>O </c><c>   1</c></rc>
    <rc><c>O </c><c>   1</c></rc>
    <rc><c>O </c><c>   1</c></rc>
    <rc><c>O </c><c>   1</c></rc>
    <rc><c>O </c><c>   1</c></rc>
    <rc><c>Si</c><c>   2</c></rc>
    <rc><c>Si</c><c>   2</c></rc>
    <rc><c>Si</c><c>   2</c></rc>
   </set>
  </array>
  <array name="atomtypes" >
   <dimension dim="1">type</dimension>
   <field type="int">atomspertype</field>
   <field type="string">element</field>
   <field>mass</field>
   <field>valence</field>
   <field type="string">pseudopotential</field>
   <set>
    <rc><c>   6</c><c>O </c><c>     16.00000000</c><c>      6.00000000</c><c>  PAW O                                 </c></rc>
    <rc><c>   3</c><c>Si</c><c>     28.08500000</c><c>      4.00000000</c><c>  PAW Si                                </c></rc>
   </set>
  </array>
 </atominfo>
 <structure name="initialpos" >
  <crystal>
   <varray name="basis" >
    <v>       2.49540000      -4.32203280       0.00000000 </v>
    <v>       2.49540000       4.32203280       0.00000000 </v>
    <v>       0.00000000       0.00000000       5.49836436 </v>
   </varray>
   <i name="volume">    118.60192573 </i>
   <varray name="rec_basis" >
    <v>       0.20036868      -0.11568630       0.00000000 </v>
    <v>       0.20036868       0.11568630       0.00000000 </v>
    <v>       0.00000000       0.00000000       0.18187227 </v>
   </varray>
  </crystal>
  <varray name="positions" >
   <v>       0.41500000       0.27200000       0.12000000 </v>
   <v>       0.85700000       0.58500000       0.45330000 </v>
   <v>       0.72800000       0.14300000       0.78660000 </v>
   <v>       0.14300000       0.72800000       0.88000000 </v>
   <v>       0.27200000       0.41500000       0.54660000 </v>
   <v>       0.58500000       0.85700000       0.21330000 </v>
   <v>       0.53500000       0.53500000       0.33330000 </v>
   <v>       0.46500000       0.00000000       0.00000000 </v>
   <v>       0.00000000       0.46500000       0.66660000 </v>
  </varray>
 </structure>
 <calculation>
  <scstep>
   <time name="dav">    1.29    1.29</time>
   <time name="total">    1.49    1.49</time>
   <energy>
    <i name="alphaZ">     65.61448043 </i>
    <i name="ewald">  -1861.08521033 </i>
    <i name="hartreedc">   -955.50857929 </i>
    <i name="XCdc">    140.48842241 </i>
    <i name="pawpsdc">   1577.66577642 </i>
    <i name="pawaedc">  -1535.99662353 </i>
    <i name="eentropy">     -0.00308319 </i>
    <i name="bandstr">    -67.16717362 </i>
    <i name="atom">   2907.39211335 </i>
    <i name="e_fr_energy">    271.40012264 </i>
    <i name="e_wo_entrp">    271.40320583 </i>
    <i name="e_0_energy">    271.40166424 </i>
   </energy>
  </scstep>
  <scstep>
   <time name="dav">    1.66    1.66</time>
   <time name="total">    1.66    1.66</time>
   <energy>
    <i name="e_fr_energy">    -62.57943160 </i>
    <i name="e_wo_entrp">    -62.57943160 </i>
    <i name="e_0_energy">    -62.57943160 </i>
   </energy>
  </scstep>
  <scstep>
   <time name="dav">    1.45    1.45</time>
   <time name="total">    1.45    1.45</time>
   <energy>
    <i name="e_fr_energy">    -80.67748463 </i>
    <i name="e_wo_entrp">    -80.67748463 </i>
    <i name="e_0_energy">    -80.67748463 </i>
   </energy>
  </scstep>
  <scstep>
   <time name="dav">    1.46    1.45</time>
   <time name="total">    1.46    1.45</time>
   <energy>
    <i name="e_fr_energy">    -80.90897920 </i>
    <i name="e_wo_entrp">    -80.90897920 </i>
    <i name="e_0_energy">    -80.90897920 </i>
   </energy>
  </scstep>
  <scstep>
   <time name="dav">    1.41    1.41</time>
   <time name="total">    1.50    1.50</time>
   <energy>
    <i name="e_fr_energy">    -80.91367401 </i>
    <i name="e_wo_entrp">    -80.91367401 </i>
    <i name="e_0_energy">    -80.91367401 </i>
   </energy>
  </scstep>
  <scstep>
   <time name="dav">    1.42    1.43</time>
   <time name="total">    1.71    1.72</time>
   <energy>
    <i name="e_fr_energy">    -71.70810714 </i>
    <i name="e_wo_entrp">    -71.70810714 </i>
    <i name="e_0_energy">    -71.70810714 </i>
   </energy>
  </scstep>
  <scstep>
   <time name="dav">    1.50    1.50</time>
   <time name="total">    1.79    1.79</time>
   <energy>
    <i name="e_fr_energy">    -71.72372940 </i>
    <i name="e_wo_entrp">    -71.72372940 </i>
    <i name="e_0_energy">    -71.72372940 </i>
   </energy>
  </scstep>
  <scstep>
   <time name="dav">    1.44    1.44</time>
   <time name="total">    1.73    1.73</time>
   <energy>
    <i name="e_fr_energy">    -71.73368242 </i>
    <i name="e_wo_entrp">    -71.73368242 </i>
    <i name="e_0_energy">    -71.73368242 </i>
   </energy>
  </scstep>
  <scstep>
   <time name="dav">    1.44    1.44</time>
   <time name="total">    1.73    1.73</time>
   <energy>
    <i name="e_fr_energy">    -71.73509684 </i>
    <i name="e_wo_entrp">    -71.73509684 </i>
    <i name="e_0_energy">    -71.73509684 </i>
   </energy>
  </scstep>
  <scstep>
   <time name="dav">    1.43    1.43</time>
   <time name="total">    1.72    1.72</time>
   <energy>
    <i name="e_fr_energy">    -71.73679730 </i>
    <i name="e_wo_entrp">    -71.73679730 </i>
    <i name="e_0_energy">    -71.73679730 </i>
   </energy>
  </scstep>
  <scstep>
   <time name="dav">    1.45    1.45</time>
   <time name="total">    1.65    1.65</time>
   <energy>
    <i name="alphaZ">     65.61448043 </i>
    <i name="ewald">  -1861.08521033 </i>
    <i name="hartreedc">  -1083.37102549 </i>
    <i name="XCdc">    149.29948331 </i>
    <i name="pawpsdc">   2042.24884621 </i>
    <i name="pawaedc">  -2002.60984158 </i>
    <i name="eentropy">      0.00000000 </i>
    <i name="bandstr">   -289.22565730 </i>
    <i name="atom">   2907.39211335 </i>
    <i name="e_fr_energy">    -71.73681140 </i>
    <i name="e_wo_entrp">    -71.73681140 </i>
    <i name="e_0_energy">    -71.73681140 </i>
   </energy>
  </scstep>
  <structure>
   <crystal>
    <varray name="basis" >
     <v>       2.49540000      -4.32203280       0.00000000 </v>
     <v>       2.49540000       4.32203280       0.00000000 </v>
     <v>       0.00000000       0.00000000       5.49836436 </v>
    </varray>
    <i name="volume">    118.60192573 </i>
    <varray name="rec_basis" >
     <v>       0.20036868      -0.11568630       0.00000000 </v>
     <v>       0.20036868       0.11568630       0.00000000 </v>
     <v>       0.00000000       0.00000000       0.18187227 </v>
    </varray>
   </crystal>
   <varray name="positions" >
    <v>       0.41500000       0.27200000       0.12000000 </v>
    <v>       0.85700000       0.58500000       0.45330000 </v>
    <v>       0.72800000       0.14300000       0.78660000 </v>
    <v>       0.14300000       0.72800000       0.88000000 </v>
    <v>       0.27200000       0.41500000       0.54660000 </v>
    <v>       0.58500000       0.85700000       0.21330000 </v>
    <v>       0.53500000       0.53500000       0.33330000 </v>
    <v>       0.46500000       0.00000000       0.00000000 </v>
    <v>       0.00000000       0.46500000       0.66660000 </v>
   </varray>
  </structure>
  <varray name="forces" >
   <v>      -0.16332704      -0.31456205      -0.16633330 </v>
   <v>      -0.18635447       0.29905321      -0.16603001 </v>
   <v>       0.34602197       0.01481166      -0.15522337 </v>
   <v>       0.34602197      -0.01481166       0.15522337 </v>
   <v>      -0.16332704       0.31456205       0.16633330 </v>
   <v>      -0.18635447      -0.29905321       0.16603001 </v>
   <v>      -0.01429923       0.00000000       0.00000000 </v>
   <v>       0.01080916      -0.01551686      -0.00893112 </v>
   <v>       0.01080916       0.01551686       0.00893112 </v>
  </varray>
  <varray name="stress" >
   <v>     -71.40824447       0.00000000       0.00000000 </v>
   <v>       0.00000000     -69.28105401      -0.08472644 </v>
   <v>       0.00000000      -0.08472763     -62.00944253 </v>
  </varray>
  <energy>
   <i name="e_fr_energy">    -71.73681140 </i>
   <i name="e_wo_entrp">    -71.73681140 </i>
   <i name="e_0_energy">      0.00000000 </i>
  </energy>
  <time name="totalsc">   20.37   20.39</time>
  <eigenvalues>
   <array>
    <dimension dim="1">band</dimension>
    <dimension dim="2">kpoint</dimension>
    <dimension dim="3">spin</dimension>
    <field>eigene</field>
    <field>occ</field>
    <set>
     <set comment="spin 1">
      <set comment="kpoint 1">
       <r>  -18.4553    1.0000 </r>
       <r>  -17.0257    1.0000 </r>
       <r>  -17.0234    1.0000 </r>
       <r>  -16.4123    1.0000 </r>
       <r>  -16.3789    1.0000 </r>
       <r>  -16.3765    1.0000 </r>
       <r>   -7.4772    1.0000 </r>
       <r>   -7.4749    1.0000 </r>
       <r>   -4.6583    1.0000 </r>
       <r>   -4.5995    1.0000 </r>
       <r>   -4.4402    1.0000 </r>
       <r>   -4.4393    1.0000 </r>
       <r>   -2.0881    1.0000 </r>
       <r>   -2.0866    1.0000 </r>
       <r>   -1.8334    1.0000 </r>
       <r>   -1.7043    1.0000 </r>
       <r>   -0.7625    1.0000 </r>
       <r>   -0.7613    1.0000 </r>
       <r>   -0.6767    1.0000 </r>
       <r>   -0.2518    1.0000 </r>
       <r>   -0.2512    1.0000 </r>
       <r>    0.0266    1.0000 </r>
       <r>    0.4257    1.0000 </r>
       <r>    0.4264    1.0000 </r>
       <r>    6.3330    0.0000 </r>
       <r>    9.7416    0.0000 </r>
       <r>    9.7421    0.0000 </r>
       <r>   10.1299    0.0000 </r>
       <r>   10.1304    0.0000 </r>
      </set>
      <set comment="kpoint 2">
       <r>  -17.9976    1.0000 </r>
       <r>  -17.5416    1.0000 </r>
       <r>  -16.9684    1.0000 </r>
       <r>  -16.4768    1.0000 </r>
       <r>  -16.4391    1.0000 </r>
       <r>  -16.4055    1.0000 </r>
       <r>   -7.6003    1.0000 </r>
       <r>   -6.5959    1.0000 </r>
       <r>   -5.1544    1.0000 </r>
       <r>   -4.6345    1.0000 </r>
       <r>   -4.6220    1.0000 </r>
       <r>   -3.8891    1.0000 </r>
       <r>   -2.2499    1.0000 </r>
       <r>   -2.0785    1.0000 </r>
       <r>   -1.8623    1.0000 </r>
       <r>   -1.4591    1.0000 </r>
       <r>   -1.2983    1.0000 </r>
       <r>   -0.9852    1.0000 </r>
       <r>   -0.8680    1.0000 </r>
       <r>   -0.3595    1.0000 </r>
       <r>   -0.3081    1.0000 </r>
       <r>   -0.0326    1.0000 </r>
       <r>    0.4319    1.0000 </r>
       <r>    0.6630    1.0000 </r>
       <r>    8.5178    0.0000 </r>
       <r>    9.2927    0.0000 </r>
       <r>   10.0309    0.0000 </r>
       <r>   10.1888    0.0000 </r>
       <r>   10.9908    0.0000 </r>
      </set>
      <set comment="kpoint 3">
       <r>  -17.9958    1.0000 </r>
       <r>  -17.5433    1.0000 </r>
       <r>  -16.9702    1.0000 </r>
       <r>  -16.4772    1.0000 </r>
       <r>  -16.4403    1.0000 </r>
       <r>  -16.4021    1.0000 </r>
       <r>   -7.5988    1.0000 </r>
       <r>   -6.5972    1.0000 </r>
       <r>   -5.1557    1.0000 </r>
       <r>   -4.6327    1.0000 </r>
       <r>   -4.6218    1.0000 </r>
       <r>   -3.8898    1.0000 </r>
       <r>   -2.2496    1.0000 </r>
       <r>   -2.0801    1.0000 </r>
       <r>   -1.8620    1.0000 </r>
       <r>   -1.4588    1.0000 </r>
       <r>   -1.2990    1.0000 </r>
       <r>   -0.9854    1.0000 </r>
       <r>   -0.8670    1.0000 </r>
       <r>   -0.3600    1.0000 </r>
       <r>   -0.3077    1.0000 </r>
       <r>   -0.0333    1.0000 </r>
       <r>    0.4323    1.0000 </r>
       <r>    0.6637    1.0000 </r>
       <r>    8.5176    0.0000 </r>
       <r>    9.2917    0.0000 </r>
       <r>   10.0311    0.0000 </r>
       <r>   10.1912    0.0000 </r>
       <r>   10.9643    0.0000 </r>
      </set>
      <set comment="kpoint 4">
       <r>  -18.0189    1.0000 </r>
       <r>  -18.0164    1.0000 </r>
       <r>  -16.4341    1.0000 </r>
       <r>  -16.4058    1.0000 </r>
       <r>  -16.4036    1.0000 </r>
       <r>  -16.3530    1.0000 </r>
       <r>   -8.5246    1.0000 </r>
       <r>   -5.5165    1.0000 </r>
       <r>   -5.5143    1.0000 </r>
       <r>   -4.7718    1.0000 </r>
       <r>   -4.7698    1.0000 </r>
       <r>   -3.9213    1.0000 </r>
       <r>   -1.9264    1.0000 </r>
       <r>   -1.9253    1.0000 </r>
       <r>   -1.8210    1.0000 </r>
       <r>   -1.1720    1.0000 </r>
       <r>   -1.1715    1.0000 </r>
       <r>   -1.0626    1.0000 </r>
       <r>   -1.0618    1.0000 </r>
       <r>   -0.7580    1.0000 </r>
       <r>   -0.4183    1.0000 </r>
       <r>    0.4867    1.0000 </r>
       <r>    0.4885    1.0000 </r>
       <r>    0.5981    1.0000 </r>
       <r>    8.2298    0.0000 </r>
       <r>    8.2319    0.0000 </r>
       <r>    9.6868    0.0000 </r>
       <r>   10.1000    0.0000 </r>
       <r>   10.1011    0.0000 </r>
      </set>
      <set comment="kpoint 5">
       <r>  -17.9342    1.0000 </r>
       <r>  -17.5119    1.0000 </r>
       <r>  -17.0889    1.0000 </r>
       <r>  -16.4945    1.0000 </r>
       <r>  -16.4267    1.0000 </r>
       <r>  -16.3961    1.0000 </r>
       <r>   -7.4625    1.0000 </r>
       <r>   -6.4918    1.0000 </r>
       <r>   -5.6212    1.0000 </r>
       <r>   -4.5183    1.0000 </r>
       <r>   -4.2833    1.0000 </r>
       <r>   -4.1862    1.0000 </r>
       <r>   -2.3713    1.0000 </r>
       <r>   -2.3455    1.0000 </r>
       <r>   -1.6146    1.0000 </r>
       <r>   -1.3281    1.0000 </r>
       <r>   -1.2860    1.0000 </r>
       <r>   -0.7829    1.0000 </r>
       <r>   -0.5193    1.0000 </r>
       <r>   -0.3954    1.0000 </r>
       <r>   -0.1388    1.0000 </r>
       <r>   -0.1149    1.0000 </r>
       <r>    0.1218    1.0000 </r>
       <r>    0.5192    1.0000 </r>
       <r>    8.9114    0.0000 </r>
       <r>    9.5082    0.0000 </r>
       <r>   10.2119    0.0000 </r>
       <r>   10.3693    0.0000 </r>
       <r>   10.5311    0.0000 </r>
      </set>
      <set comment="kpoint 6">
       <r>  -17.9321    1.0000 </r>
       <r>  -17.5137    1.0000 </r>
       <r>  -17.0907    1.0000 </r>
       <r>  -16.4955    1.0000 </r>
       <r>  -16.4271    1.0000 </r>
       <r>  -16.3931    1.0000 </r>
       <r>   -7.4605    1.0000 </r>
       <r>   -6.4932    1.0000 </r>
       <r>   -5.6232    1.0000 </r>
       <r>   -4.5161    1.0000 </r>
       <r>   -4.2841    1.0000 </r>
       <r>   -4.1860    1.0000 </r>
       <r>   -2.3713    1.0000 </r>
       <r>   -2.3460    1.0000 </r>
       <r>   -1.6142    1.0000 </r>
       <r>   -1.3273    1.0000 </r>
       <r>   -1.2853    1.0000 </r>
       <r>   -0.7846    1.0000 </r>
       <r>   -0.5206    1.0000 </r>
       <r>   -0.3961    1.0000 </r>
       <r>   -0.1386    1.0000 </r>
       <r>   -0.1145    1.0000 </r>
       <r>    0.1210    1.0000 </r>
       <r>    0.5211    1.0000 </r>
       <r>    8.9113    0.0000 </r>
       <r>    9.5087    0.0000 </r>
       <r>   10.2144    0.0000 </r>
       <r>   10.3729    0.0000 </r>
       <r>   10.5287    0.0000 </r>
      </set>
     </set>
    </set>
   </array>
  </eigenvalues>
  <separator name="orbital magnetization" >
   <v name="MAGDIPOLOUT">      0.00000000      0.00000000      0.00000000</v>
  </separator>
  <dos>
   <i name="efermi">      1.13308115 </i>
   <total>
    <array>
     <dimension dim="1">gridpoints</dimension>
     <dimension dim="2">spin</dimension>
     <field>energy</field>
     <field>total</field>
     <field>integrated</field>
     <set>
      <set comment="spin 1">
       <r> -19.9276   0.0000   0.0000 </r>
       <r> -19.8196   0.0000   0.0000 </r>
       <r> -19.7116   0.0000   0.0000 </r>
       <r> -19.6037   0.0000   0.0000 </r>
       <r> -19.4957   0.0000   0.0000 </r>
       <r> -19.3877   0.0000   0.0000 </r>
       <r> -19.2798   0.0000   0.0000 </r>
       <r> -19.1718   0.0000   0.0000 </r>
       <r> -19.0638   0.0000   0.0000 </r>
       <r> -18.9559   0.0000   0.0000 </r>
       <r> -18.8479   0.0000   0.0000 </r>
       <r> -18.7399   0.0001   0.0000 </r>
       <r> -18.6320   0.0144   0.0016 </r>
       <r> -18.5240   0.3690   0.0414 </r>
       <r> -18.4160   1.2620   0.1777 </r>
       <r> -18.3080   0.6269   0.2453 </r>
       <r> -18.2001   0.0804   0.2540 </r>
       <r> -18.0921   1.3468   0.3994 </r>
       <r> -17.9841   7.3953   1.1979 </r>
       <r> -17.8762   7.8846   2.0492 </r>
       <r> -17.7682   1.7930   2.2428 </r>
       <r> -17.6602   0.5237   2.2993 </r>
       <r> -17.5523   4.6146   2.7976 </r>
       <r> -17.4443   7.0805   3.5620 </r>
       <r> -17.3363   1.6858   3.7441 </r>
       <r> -17.2284   0.2368   3.7696 </r>
       <r> -17.1204   2.6356   4.0542 </r>
       <r> -17.0124   7.6751   4.8829 </r>
       <r> -16.9045   6.5387   5.5888 </r>
       <r> -16.7965   1.4387   5.7442 </r>
       <r> -16.6885   0.0880   5.7537 </r>
       <r> -16.5805   1.6889   5.9360 </r>
       <r> -16.4726  14.8224   7.5364 </r>
       <r> -16.3646  28.5329  10.6170 </r>
       <r> -16.2566  11.8765  11.8993 </r>
       <r> -16.1487   0.9211  11.9988 </r>
       <r> -16.0407   0.0114  12.0000 </r>
       <r> -15.9327   0.0000  12.0000 </r>
       <r> -15.8248   0.0000  12.0000 </r>
       <r> -15.7168   0.0000  12.0000 </r>
       <r> -15.6088   0.0000  12.0000 </r>
       <r> -15.5009   0.0000  12.0000 </r>
       <r> -15.3929   0.0000  12.0000 </r>
       <r> -15.2849   0.0000  12.0000 </r>
       <r> -15.1770   0.0000  12.0000 </r>
       <r> -15.0690   0.0000  12.0000 </r>
       <r> -14.9610   0.0000  12.0000 </r>
       <r> -14.8530   0.0000  12.0000 </r>
       <r> -14.7451   0.0000  12.0000 </r>
       <r> -14.6371   0.0000  12.0000 </r>
       <r> -14.5291   0.0000  12.0000 </r>
       <r> -14.4212   0.0000  12.0000 </r>
       <r> -14.3132   0.0000  12.0000 </r>
       <r> -14.2052   0.0000  12.0000 </r>
       <r> -14.0973   0.0000  12.0000 </r>
       <r> -13.9893   0.0000  12.0000 </r>
       <r> -13.8813   0.0000  12.0000 </r>
       <r> -13.7734   0.0000  12.0000 </r>
       <r> -13.6654   0.0000  12.0000 </r>
       <r> -13.5574   0.0000  12.0000 </r>
       <r> -13.4495   0.0000  12.0000 </r>
       <r> -13.3415   0.0000  12.0000 </r>
       <r> -13.2335   0.0000  12.0000 </r>
       <r> -13.1255   0.0000  12.0000 </r>
       <r> -13.0176   0.0000  12.0000 </r>
       <r> -12.9096   0.0000  12.0000 </r>
       <r> -12.8016   0.0000  12.0000 </r>
       <r> -12.6937   0.0000  12.0000 </r>
       <r> -12.5857   0.0000  12.0000 </r>
       <r> -12.4777   0.0000  12.0000 </r>
       <r> -12.3698   0.0000  12.0000 </r>
       <r> -12.2618   0.0000  12.0000 </r>
       <r> -12.1538   0.0000  12.0000 </r>
       <r> -12.0459   0.0000  12.0000 </r>
       <r> -11.9379   0.0000  12.0000 </r>
       <r> -11.8299   0.0000  12.0000 </r>
       <r> -11.7220   0.0000  12.0000 </r>
       <r> -11.6140   0.0000  12.0000 </r>
       <r> -11.5060   0.0000  12.0000 </r>
       <r> -11.3980   0.0000  12.0000 </r>
       <r> -11.2901   0.0000  12.0000 </r>
       <r> -11.1821   0.0000  12.0000 </r>
       <r> -11.0741   0.0000  12.0000 </r>
       <r> -10.9662   0.0000  12.0000 </r>
       <r> -10.8582   0.0000  12.0000 </r>
       <r> -10.7502   0.0000  12.0000 </r>
       <r> -10.6423   0.0000  12.0000 </r>
       <r> -10.5343   0.0000  12.0000 </r>
       <r> -10.4263   0.0000  12.0000 </r>
       <r> -10.3184   0.0000  12.0000 </r>
       <r> -10.2104   0.0000  12.0000 </r>
       <r> -10.1024   0.0000  12.0000 </r>
       <r>  -9.9945   0.0000  12.0000 </r>
       <r>  -9.8865   0.0000  12.0000 </r>
       <r>  -9.7785   0.0000  12.0000 </r>
       <r>  -9.6705   0.0000  12.0000 </r>
       <r>  -9.5626   0.0000  12.0000 </r>
       <r>  -9.4546   0.0000  12.0000 </r>
       <r>  -9.3466   0.0000  12.0000 </r>
       <r>  -9.2387   0.0000  12.0000 </r>
       <r>  -9.1307   0.0000  12.0000 </r>
       <r>  -9.0227   0.0000  12.0000 </r>
       <r>  -8.9148   0.0000  12.0000 </r>
       <r>  -8.8068   0.0001  12.0000 </r>
       <r>  -8.6988   0.0158  12.0017 </r>
       <r>  -8.5909   0.3877  12.0436 </r>
       <r>  -8.4829   1.2688  12.1806 </r>
       <r>  -8.3749   0.6033  12.2457 </r>
       <r>  -8.2670   0.0394  12.2500 </r>
       <r>  -8.1590   0.0003  12.2500 </r>
       <r>  -8.0510   0.0000  12.2500 </r>
       <r>  -7.9430   0.0000  12.2500 </r>
       <r>  -7.8351   0.0030  12.2503 </r>
       <r>  -7.7271   0.2477  12.2771 </r>
       <r>  -7.6191   2.6637  12.5647 </r>
       <r>  -7.5112   6.4225  13.2581 </r>
       <r>  -7.4032   7.0529  14.0196 </r>
       <r>  -7.2952   2.0453  14.2404 </r>
       <r>  -7.1873   0.0882  14.2500 </r>
       <r>  -7.0793   0.0005  14.2500 </r>
       <r>  -6.9713   0.0000  14.2500 </r>
       <r>  -6.8634   0.0006  14.2501 </r>
       <r>  -6.7554   0.0852  14.2593 </r>
       <r>  -6.6474   1.6446  14.4368 </r>
       <r>  -6.5395   5.5057  15.0313 </r>
       <r>  -6.4315   5.2336  15.5963 </r>
       <r>  -6.3235   1.3638  15.7436 </r>
       <r>  -6.2155   0.0592  15.7500 </r>
       <r>  -6.1076   0.0003  15.7500 </r>
       <r>  -5.9996   0.0000  15.7500 </r>
       <r>  -5.8916   0.0005  15.7501 </r>
       <r>  -5.7837   0.0767  15.7583 </r>
       <r>  -5.6757   1.5271  15.9232 </r>
       <r>  -5.5677   4.8634  16.4483 </r>
       <r>  -5.4598   4.0352  16.8840 </r>
       <r>  -5.3518   1.0448  16.9968 </r>
       <r>  -5.2438   0.7526  17.0780 </r>
       <r>  -5.1359   3.4851  17.4543 </r>
       <r>  -5.0279   2.4870  17.7228 </r>
       <r>  -4.9199   0.3301  17.7585 </r>
       <r>  -4.8120   1.3240  17.9014 </r>
       <r>  -4.7040   5.1932  18.4621 </r>
       <r>  -4.5960  11.4334  19.6966 </r>
       <r>  -4.4880  10.3925  20.8186 </r>
       <r>  -4.3801   5.8221  21.4472 </r>
       <r>  -4.2721   5.1451  22.0028 </r>
       <r>  -4.1641   6.2953  22.6825 </r>
       <r>  -4.0562   2.8360  22.9887 </r>
       <r>  -3.9482   2.3245  23.2396 </r>
       <r>  -3.8402   5.0588  23.7858 </r>
       <r>  -3.7323   1.8836  23.9892 </r>
       <r>  -3.6243   0.0994  23.9999 </r>
       <r>  -3.5163   0.0006  24.0000 </r>
       <r>  -3.4084   0.0000  24.0000 </r>
       <r>  -3.3004   0.0000  24.0000 </r>
       <r>  -3.1924   0.0000  24.0000 </r>
       <r>  -3.0844   0.0000  24.0000 </r>
       <r>  -2.9765   0.0000  24.0000 </r>
       <r>  -2.8685   0.0000  24.0000 </r>
       <r>  -2.7605   0.0000  24.0000 </r>
       <r>  -2.6526   0.0003  24.0000 </r>
       <r>  -2.5446   0.0664  24.0072 </r>
       <r>  -2.4366   1.8867  24.2109 </r>
       <r>  -2.3287   8.1527  25.0911 </r>
       <r>  -2.2207   8.2809  25.9852 </r>
       <r>  -2.1127   6.1528  26.6495 </r>
       <r>  -2.0048   7.0860  27.4146 </r>
       <r>  -1.8968   6.7287  28.1411 </r>
       <r>  -1.7888   8.0616  29.0115 </r>
       <r>  -1.6809   4.7533  29.5247 </r>
       <r>  -1.5729   5.0861  30.0738 </r>
       <r>  -1.4649   5.0401  30.6180 </r>
       <r>  -1.3569   7.9148  31.4726 </r>
       <r>  -1.2490  12.4154  32.8130 </r>
       <r>  -1.1410   7.5913  33.6327 </r>
       <r>  -1.0330   5.8287  34.2620 </r>
       <r>  -0.9251   7.0180  35.0197 </r>
       <r>  -0.8171   8.7872  35.9684 </r>
       <r>  -0.7091   9.9182  37.0393 </r>
       <r>  -0.6012   4.7104  37.5479 </r>
       <r>  -0.4932   5.1890  38.1081 </r>
       <r>  -0.3852  10.1543  39.2045 </r>
       <r>  -0.2773  12.6872  40.5743 </r>
       <r>  -0.1693   9.5221  41.6024 </r>
       <r>  -0.0613  10.7638  42.7645 </r>
       <r>   0.0466   8.2180  43.6518 </r>
       <r>   0.1546   5.5242  44.2483 </r>
       <r>   0.2626   2.2806  44.4945 </r>
       <r>   0.3706   2.7355  44.7898 </r>
       <r>   0.4785  10.2140  45.8926 </r>
       <r>   0.5865  10.4967  47.0259 </r>
       <r>   0.6945   6.4772  47.7253 </r>
       <r>   0.8024   2.3695  47.9811 </r>
       <r>   0.9104   0.1733  47.9998 </r>
       <r>   1.0184   0.0017  48.0000 </r>
       <r>   1.1263   0.0000  48.0000 </r>
       <r>   1.2343   0.0000  48.0000 </r>
       <r>   1.3423   0.0000  48.0000 </r>
       <r>   1.4502   0.0000  48.0000 </r>
       <r>   1.5582   0.0000  48.0000 </r>
       <r>   1.6662   0.0000  48.0000 </r>
       <r>   1.7741   0.0000  48.0000 </r>
       <r>   1.8821   0.0000  48.0000 </r>
       <r>   1.9901   0.0000  48.0000 </r>
       <r>   2.0981   0.0000  48.0000 </r>
       <r>   2.2060   0.0000  48.0000 </r>
       <r>   2.3140   0.0000  48.0000 </r>
       <r>   2.4220   0.0000  48.0000 </r>
       <r>   2.5299   0.0000  48.0000 </r>
       <r>   2.6379   0.0000  48.0000 </r>
       <r>   2.7459   0.0000  48.0000 </r>
       <r>   2.8538   0.0000  48.0000 </r>
       <r>   2.9618   0.0000  48.0000 </r>
       <r>   3.0698   0.0000  48.0000 </r>
       <r>   3.1777   0.0000  48.0000 </r>
       <r>   3.2857   0.0000  48.0000 </r>
       <r>   3.3937   0.0000  48.0000 </r>
       <r>   3.5016   0.0000  48.0000 </r>
       <r>   3.6096   0.0000  48.0000 </r>
       <r>   3.7176   0.0000  48.0000 </r>
       <r>   3.8256   0.0000  48.0000 </r>
       <r>   3.9335   0.0000  48.0000 </r>
       <r>   4.0415   0.0000  48.0000 </r>
       <r>   4.1495   0.0000  48.0000 </r>
       <r>   4.2574   0.0000  48.0000 </r>
       <r>   4.3654   0.0000  48.0000 </r>
       <r>   4.4734   0.0000  48.0000 </r>
       <r>   4.5813   0.0000  48.0000 </r>
       <r>   4.6893   0.0000  48.0000 </r>
       <r>   4.7973   0.0000  48.0000 </r>
       <r>   4.9052   0.0000  48.0000 </r>
       <r>   5.0132   0.0000  48.0000 </r>
       <r>   5.1212   0.0000  48.0000 </r>
       <r>   5.2291   0.0000  48.0000 </r>
       <r>   5.3371   0.0000  48.0000 </r>
       <r>   5.4451   0.0000  48.0000 </r>
       <r>   5.5531   0.0000  48.0000 </r>
       <r>   5.6610   0.0000  48.0000 </r>
       <r>   5.7690   0.0000  48.0000 </r>
       <r>   5.8770   0.0000  48.0000 </r>
       <r>   5.9849   0.0000  48.0000 </r>
       <r>   6.0929   0.0008  48.0001 </r>
       <r>   6.2009   0.0706  48.0077 </r>
       <r>   6.3088   0.7765  48.0915 </r>
       <r>   6.4168   1.1943  48.2205 </r>
       <r>   6.5248   0.2656  48.2492 </r>
       <r>   6.6327   0.0077  48.2500 </r>
       <r>   6.7407   0.0000  48.2500 </r>
       <r>   6.8487   0.0000  48.2500 </r>
       <r>   6.9566   0.0000  48.2500 </r>
       <r>   7.0646   0.0000  48.2500 </r>
       <r>   7.1726   0.0000  48.2500 </r>
       <r>   7.2806   0.0000  48.2500 </r>
       <r>   7.3885   0.0000  48.2500 </r>
       <r>   7.4965   0.0000  48.2500 </r>
       <r>   7.6045   0.0000  48.2500 </r>
       <r>   7.7124   0.0000  48.2500 </r>
       <r>   7.8204   0.0000  48.2500 </r>
       <r>   7.9284   0.0000  48.2500 </r>
       <r>   8.0363   0.0138  48.2515 </r>
       <r>   8.1443   0.4985  48.3053 </r>
       <r>   8.2523   2.3560  48.5597 </r>
       <r>   8.3602   1.6971  48.7429 </r>
       <r>   8.4682   1.7438  48.9312 </r>
       <r>   8.5762   3.8495  49.3468 </r>
       <r>   8.6841   1.3587  49.4935 </r>
       <r>   8.7921   0.3781  49.5343 </r>
       <r>   8.9001   2.7144  49.8274 </r>
       <r>   9.0081   3.3183  50.1857 </r>
       <r>   9.1160   0.6264  50.2533 </r>
       <r>   9.2240   1.1288  50.3752 </r>
       <r>   9.3320   3.8329  50.7890 </r>
       <r>   9.4399   2.9841  51.1112 </r>
       <r>   9.5479   3.9865  51.5416 </r>
       <r>   9.6559   3.0869  51.8749 </r>
       <r>   9.7638   3.7197  52.2765 </r>
       <r>   9.8718   1.9945  52.4919 </r>
       <r>   9.9798   1.9963  52.7074 </r>
       <r>  10.0877   7.6004  53.5280 </r>
       <r>  10.1957  11.9577  54.8191 </r>
       <r>  10.3037   8.7227  55.7609 </r>
       <r>  10.4116   5.2002  56.3223 </r>
       <r>  10.5196   4.5794  56.8168 </r>
       <r>  10.6276   3.4246  57.1865 </r>
       <r>  10.7356   0.5773  57.2488 </r>
       <r>  10.8435   0.1986  57.2703 </r>
       <r>  10.9515   2.1436  57.5017 </r>
       <r>  11.0595   3.6416  57.8949 </r>
       <r>  11.1674   0.9398  57.9964 </r>
       <r>  11.2754   0.0334  58.0000 </r>
       <r>  11.3834   0.0001  58.0000 </r>
       <r>  11.4913   0.0000  58.0000 </r>
       <r>  11.5993   0.0000  58.0000 </r>
       <r>  11.7073   0.0000  58.0000 </r>
       <r>  11.8152   0.0000  58.0000 </r>
       <r>  11.9232   0.0000  58.0000 </r>
       <r>  12.0312   0.0000  58.0000 </r>
       <r>  12.1391   0.0000  58.0000 </r>
       <r>  12.2471   0.0000  58.0000 </r>
       <r>  12.3551   0.0000  58.0000 </r>
       <r>  12.4631   0.0000  58.0000 </r>
      </set>
     </set>
    </array>
   </total>
  </dos>
 </calculation>
 <structure name="finalpos" >
  <crystal>
   <varray name="basis" >
    <v>       2.49540000      -4.32203280       0.00000000 </v>
    <v>       2.49540000       4.32203280       0.00000000 </v>
    <v>       0.00000000       0.00000000       5.49836436 </v>
   </varray>
   <i name="volume">    118.60192573 </i>
   <varray name="rec_basis" >
    <v>       0.20036868      -0.11568630       0.00000000 </v>
    <v>       0.20036868       0.11568630       0.00000000 </v>
    <v>       0.00000000       0.00000000       0.18187227 </v>
   </varray>
  </crystal>
  <varray name="positions" >
   <v>       0.41500000       0.27200000       0.12000000 </v>
   <v>       0.85700000       0.58500000       0.45330000 </v>
   <v>       0.72800000       0.14300000       0.78660000 </v>
   <v>       0.14300000       0.72800000       0.88000000 </v>
   <v>       0.27200000       0.41500000       0.54660000 </v>
   <v>       0.58500000       0.85700000       0.21330000 </v>
   <v>       0.53500000       0.53500000       0.33330000 </v>
   <v>       0.46500000       0.00000000       0.00000000 </v>
   <v>       0.00000000       0.46500000       0.66660000 </v>
  </varray>
 </structure>
</modeling>
