Cu: benchmark                           
   4.70000000000000     
     1.000000    0.000000    0.000000
     0.000000    1.000000    0.000000
     0.000000    0.000000    1.000000
   Cu
   8
Direct
  0.190982  0.980945  0.119217
  0.904416  0.311247  0.348524
  0.934264  0.338910  0.817522
  0.703887  0.961433  0.109908
  0.394977  0.305376  0.353452
  0.898411  0.901110  0.623604
  0.405492  0.865327  0.550565
  0.430485  0.304009  0.830338
 
   28   28   28
  36.382      53.297      114.21      260.86      436.29      530.22      518.54      394.79      210.37      86.909    
  43.396      30.560      26.002      26.511      31.831      45.190      91.572      226.45      429.07      564.88    
  585.20      498.05      309.05      135.06      58.589      37.636      31.286      30.998      35.589      48.250    
  89.390      192.36      330.99      417.17      404.55      296.10      157.21      72.371      42.380      32.194    
  28.269      28.434      32.348      41.587      67.673      143.52      275.42      388.23      410.02      330.17    
  194.43      91.169      48.837      35.585      30.866      30.936      34.066      42.007      61.724      109.85    
  182.70      235.23      227.03      164.36      95.268      56.200      40.773      33.816      30.818      30.597    
  32.861      38.313      49.791      77.965      130.29      182.54      193.88      154.61      97.092      58.024    
  40.918      33.415      30.387      30.641      32.841      37.384      45.532      60.991      84.187      102.29    
  100.18      80.465      59.729      47.096      40.073      35.989      33.910      33.264      33.951      36.324    
  41.052      49.156      61.977      74.897      77.749      67.735      53.465      42.839      36.143      32.119    
  30.413      30.676      32.546      34.633      38.071      42.885      48.580      53.005      53.473      50.417    
  46.544      43.300      40.989      39.468      38.259      37.110      36.188      35.925      36.797      38.860    
  41.516      43.720      44.137      42.387      39.487      36.449      33.905      32.178      31.368      31.501    
  33.622      33.690      34.289      35.579      37.275      38.821      39.840      40.450      41.183      42.444    
  44.078      45.446      45.483      43.501      40.308      37.200      34.945      33.828      33.568      33.641    
  33.697      33.677      33.692      33.809      33.944      33.984      33.903      33.756      36.464      34.350    
  32.565      31.583      31.452      32.003      33.188      35.246      38.661      43.629      50.201      57.274    
  60.292      56.073      47.660      40.019      34.549      30.993      29.043      28.204      28.250      29.194    
  31.028      33.509      36.067      38.020      38.810      38.183      41.231      36.272      32.052      29.183    
  27.778      27.694      28.950      31.943      37.358      46.041      60.080      76.784      84.782      76.665    
  59.125      44.001      34.786      29.206      26.124      24.826      25.004      26.713      30.034      34.727    
  40.026      44.890      47.316      45.705      47.619      38.678      32.045      27.603      25.257      24.723    
  25.955      29.457      36.118      47.832      68.576      93.701      105.88      94.506      68.983      47.044    
  34.627      27.728      24.004      22.530      22.905      25.241      29.790      36.502      45.212      54.691    
  59.864      56.611      52.463      40.038      31.572      26.130      23.203      22.356      23.460      27.002    
  33.877      45.993      67.299      92.963      105.43      94.006      68.159      45.787      32.997      25.842    
  21.990      20.538      21.106      23.871      29.226      37.375      49.018      62.539      70.063      65.397    
  51.081      38.487      29.793      24.122      20.986      19.937      20.814      23.986      30.114      40.009    
  55.607      73.773      82.576      74.391      56.058      39.829      29.588      23.233      19.721      18.431    
  19.124      22.022      27.541      35.877      47.674      61.272      68.805      64.104      43.335      33.868    
  26.568      21.463      18.506      17.378      17.961      20.472      25.257      32.286      41.231      50.396    
  54.611      50.453      41.135      32.029      24.972      20.072      17.283      16.298      17.034      19.703    
  24.640      31.815      40.962      50.723      55.978      52.627      33.684      27.777      22.430      18.433    
  15.990      14.940      15.214      16.917      20.175      24.736      29.687      33.708      35.274      33.539    
  29.431      24.522      20.016      16.713      14.825      14.245      14.955      17.119      20.962      26.323    
  32.365      37.830      40.520      38.749      25.244      21.657      18.123      15.333      13.543      12.695    
  12.718      13.666      15.581      18.216      20.934      22.940      23.631      22.826      20.787      18.103    
  15.484      13.508      12.422      12.200      12.816      14.405      17.095      20.682      24.479      27.485    
  28.777      27.911      18.541      16.432      14.237      12.411      11.188      10.568      10.458      10.875    
  11.850      13.213      14.583      15.561      15.900      15.546      14.588      13.247      11.868      10.813    
  10.281      10.260      10.733      11.821      13.594      15.852      18.122      19.828      20.523      20.042    
  13.735      12.503      11.160      9.9877      9.1726      8.7269      8.5833      8.7219      9.1462      9.7676    
  10.390      10.830      11.001      10.893      10.526      9.9645      9.3629      8.9157      8.7313      8.8078    
  9.1490      9.8380      10.928      12.279      13.585      14.523      14.877      14.589      10.614      9.8914    
  9.0934      8.3790      7.8528      7.5288      7.3714      7.3548      7.4680      7.6746      7.9020      8.0817    
  8.1836      8.2033      8.1396      8.0105      7.8785      7.8267      7.8976      8.0765      8.3493      8.7505    
  9.3218      10.021      10.697      11.169      11.319      11.121      8.8645      8.4440      8.0011      7.6039    
  7.2870      7.0435      6.8500      6.7000      6.6097      6.5924      6.6378      6.7178      6.8063      6.8877    
  6.9586      7.0335      7.1473      7.3340      7.5922      7.8785      8.1458      8.3888      8.6392      8.9138    
  9.1751      9.3453      9.3569      9.1882      8.1701      7.9091      7.6658      7.4485      7.2426      7.0277    
  6.7953      6.5589      6.3527      6.2151      6.1666      6.1980      6.2819      6.3970      6.5453      6.7475    
  7.0224      7.3671      7.7489      8.1130      8.4050      8.5966      8.6974      8.7398      8.7459      8.7080    
  8.6013      8.4148      8.2508      8.1011      8.0052      7.9174      7.7842      7.5840      7.3293      7.0418    
  6.7452      6.4769      6.2873      6.2126      6.2567      6.4108      6.6835      7.0959      7.6424      8.2666    
  8.8789      9.3911      9.7349      9.8682      9.7915      9.5608      9.2643      8.9710      8.7030      8.4589    
  9.0254      9.0765      9.2829      9.5142      9.6227      9.5360      9.2583      8.8161      8.2388      7.6010    
  7.0467      6.7146      6.6609      6.8823      7.3943      8.2332      9.3641      10.632      11.826      12.738    
  13.205      13.154      12.634      11.807      10.894      10.100      9.5281      9.1758      10.648      11.125    
  11.975      12.942      13.691      13.957      13.641      12.775      11.490      10.021      8.7015      7.8439    
  7.5900      7.9254      8.8616      10.441      12.604      15.114      17.546      19.366      20.112      19.610    
  18.082      16.025      13.974      12.309      11.199      10.661      13.380      14.588      16.609      19.051    
  21.219      22.349      21.977      20.140      17.326      14.241      11.579      9.8328      9.2045      9.7023    
  11.298      14.043      18.000      22.951      28.202      32.525      34.003      31.931      27.736      23.040    
  18.876      15.806      13.913      13.125      17.335      19.795      23.999      29.628      35.918      40.266    
  39.499      34.064      27.207      20.900      15.936      12.804      11.597      12.272      14.781      19.350    
  26.568      37.963      55.551      73.373      78.302      66.278      48.084      34.420      25.961      20.602    
  17.642      16.618      22.308      26.909      35.697      52.700      78.186      97.709      94.380      71.052    
  46.330      30.757      21.806      16.639      14.623      15.453      19.118      26.340      40.664      75.320    
  138.68      201.21      216.17      171.67      103.41      55.979      35.313      26.310      21.970      20.775    
  27.656      35.626      56.568      108.31      186.41      242.26      232.79      164.54      89.062      45.999    
  28.735      20.919      17.908      18.833      23.725      34.400      64.340      150.55      296.70      417.70    
  442.02      359.39      211.67      95.443      47.059      31.981      26.123      24.887      32.368      45.192    
  88.099      195.71      339.90      428.94      415.30      301.97      156.65      67.507      35.812      25.001    
  21.020      21.934      27.754      42.035      91.702      234.96      445.42      581.12      601.07      516.21    
  323.21      140.36      58.750      36.306      29.269      28.194      35.436      52.468      114.29      263.10    
  440.73      535.57      523.48      397.98      210.98      85.618      41.357      28.282      23.698      24.468    
  30.491      46.142      103.93      268.19      494.56      622.78      637.28      561.47      363.27      158.46    
  63.658      38.230      30.946      30.226      44.709      90.155      263.80      566.77      718.68      683.39    
  705.94      712.04      477.06      187.88      64.324      36.001      28.818      29.437      37.457      65.178    
  185.74      474.98      716.06      708.77      683.54      733.55      601.66      288.78      96.580      45.070    
  34.618      34.742      42.141      73.286      194.14      444.51      655.44      712.56      712.41      616.85    
  364.01      141.27      56.520      36.107      30.052      30.260      36.166      53.062      119.97      308.22    
  555.90      686.52      702.15      630.33      416.81      181.72      69.983      40.821      33.581      34.070    
  38.385      54.349      110.54      248.66      422.10      520.45      505.76      378.45      201.53      87.387    
  47.638      35.710      31.227      31.020      34.569      43.409      69.044      144.43      276.37      390.12    
  412.51      332.12      195.63      92.074      49.734      36.605      32.187      32.794      35.016      42.637    
  61.071      105.78      173.97      223.55      215.59      156.72      92.739      56.755      42.338      35.626    
  32.550      31.950      33.509      37.762      46.386      65.583      100.66      136.40      144.37      117.37    
  78.557      52.129      39.610      33.469      31.079      31.602      32.712      36.399      42.624      52.970    
  67.637      79.141      78.249      66.551      53.900      45.365      39.771      36.203      34.129      33.156    
  33.226      34.557      37.555      42.330      48.686      54.654      56.083      51.740      45.056      39.135    
  34.599      31.722      30.528      30.870      31.519      32.891      35.083      38.078      41.345      43.900    
  44.757      43.983      42.369      40.558      38.931      37.529      36.207      34.909      33.752      33.009    
  32.977      33.719      34.920      36.013      36.447      36.025      34.948      33.566      32.212      31.171    
  30.654      30.782      31.295      31.011      30.888      31.165      31.885      32.893      34.034      35.284    
  36.650      38.021      39.101      39.509      38.964      37.371      35.020      32.483      30.321      28.848    
  28.100      27.951      28.264      28.948      29.869      30.763      31.374      31.634      31.656      31.533    
  31.845      30.086      28.292      26.958      26.383      26.674      27.872      29.978      32.916      36.328    
  39.526      41.728      42.090      40.136      36.541      32.392      28.577      25.717      23.992      23.329    
  23.667      24.955      27.001      29.372      31.501      32.938      33.473      33.074      32.596      29.570    
  26.525      24.191      22.933      22.840      23.967      26.363      30.038      34.639      39.312      43.010    
  44.198      41.925      37.255      31.929      27.061      23.439      21.293      20.487      20.922      22.561    
  25.282      28.670      31.990      34.443      35.444      34.758      32.582      28.712      24.912      22.043    
  20.452      20.142      21.121      23.465      27.257      32.188      37.350      41.539      43.040      40.809    
  35.937      30.287      25.108      21.273      19.033      18.235      18.770      20.629      23.757      27.780    
  31.880      35.030      36.364      35.433      30.971      26.876      22.859      19.803      18.044      17.560    
  18.336      20.442      23.940      28.508      33.230      36.864      38.122      36.319      32.216      27.185    
  22.444      18.868      16.746      16.002      16.581      18.516      21.780      25.994      30.304      33.620    
  35.012      34.004      27.603      23.936      20.271      17.393      15.641      15.030      15.550      17.260    
  20.149      23.863      27.587      30.286      31.135      29.850      26.846      22.987      19.254      16.375    
  14.647      14.071      14.633      16.406      19.376      23.183      27.038      29.965      31.159      30.276    
  23.082      20.271      17.403      15.091      13.624      13.028      13.272      14.409      16.420      18.994    
  21.510      23.272      23.795      22.955      20.994      18.432      15.912      13.972      12.863      12.583    
  13.091      14.478      16.770      19.695      22.639      24.860      25.761      25.102      18.360      16.467    
  14.519      12.937      11.925      11.466      11.488      12.030      13.129      14.598      16.042      17.043    
  17.337      16.865      15.748      14.263      12.791      11.695      11.151      11.118      11.538      12.497    
  14.060      16.050      18.046      19.543      20.149      19.711      14.229      13.051      11.826      10.820    
  10.168      9.8339      9.7447      9.9130      10.383      11.082      11.797      12.303      12.465      12.255    
  11.719      10.979      10.232      9.6913      9.4579      9.5059      9.8130      10.448      11.471      12.768    
  14.048      14.987      15.352      15.069      11.092      10.376      9.6078      8.9416      8.4680      8.1906    
  8.0759      8.1121      8.3006      8.6016      8.9191      9.1519      9.2465      9.1968      9.0176      8.7477    
  8.4648      8.2625      8.1954      8.2670      8.4813      8.8830      9.5088      10.296      11.066      11.609    
  11.796      11.604      9.0312      8.6074      8.1464      7.7219      7.3887      7.1641      7.0365      6.9917    
  7.0217      7.1100      7.2218      7.3204      7.3882      7.4253      7.4373      7.4356      7.4491      7.5145    
  7.6447      7.8162      8.0025      8.2154      8.4934      8.8417      9.1926      9.4372      9.4939      9.3466    
  7.9269      7.6852      7.4543      7.2569      7.0919      6.9395      6.7791      6.6119      6.4659      6.3755    
  6.3542      6.3886      6.4550      6.5384      6.6407      6.7787      6.9752      7.2406      7.5502      7.8423    
  8.0532      8.1640      8.2126      8.2533      8.3028      8.3278      8.2799      8.1394      7.5675      7.4329    
  7.3450      7.2863      7.2155      7.0928      6.9013      6.6553      6.3981      6.1865      6.0644      6.0421    
  6.1010      6.2208      6.4007      6.6555      6.9913      7.3880      7.7976      8.1570      8.4059      8.5097    
  8.4776      8.3587      8.2091      8.0578      7.9018      7.7336      7.8387      7.8093      7.8526      7.9046    
  7.8929      7.7813      7.5746      7.2912      6.9545      6.6119      6.3371      6.1946      6.2073      6.3713    
  6.6924      7.1842      7.8250      8.5331      9.1962      9.7188      10.030      10.083      9.8723      9.4600    
  8.9705      8.5274      8.1916      7.9652      8.8278      9.0642      9.4917      9.9482      10.256      10.309    
  10.087      9.6147      8.9303      8.1322      7.4047      6.9404      6.8237      7.0571      7.6630      8.6811    
  10.050      11.582      13.018      14.084      14.558      14.340      13.500      12.273      10.977      9.8978    
  9.1933      8.8574      10.818      11.649      12.967      14.484      15.756      16.372      16.120      15.032    
  13.335      11.404      9.6803      8.5293      8.1248      8.4732      9.5957      11.540      14.274      17.543    
  20.784      23.209      24.081      23.114      20.693      17.620      14.712      12.492      11.135      10.612    
  14.129      16.051      19.148      22.999      26.689      28.939      28.552      25.668      21.486      17.148    
  13.570      11.250      10.336      10.848      12.772      16.258      21.576      28.839      38.188      47.050    
  49.672      44.114      35.014      26.961      20.783      16.579      14.239      13.485      18.958      22.932    
  29.876      41.467      57.770      70.149      68.103      53.423      37.513      26.576      19.467      15.205    
  13.507      14.206      17.334      23.465      34.761      59.661      104.64      150.17      161.62      129.22    
  80.143      46.020      30.103      22.304      18.488      17.519      25.256      33.186      53.261      102.27    
  176.45      229.70      220.49      155.49      84.284      43.884      27.645      20.206      17.317      18.224    
  23.053      33.767      64.885      155.26      307.10      431.72      458.41      374.75      220.16      96.766    
  45.229      29.434      23.501      22.365      32.427      49.180      109.47      256.45      437.41      537.76    
  522.47      390.15      203.30      81.276      38.494      25.680      21.196      22.277      29.110      48.219    
  124.48      333.38      589.04      703.73      716.90      662.24      450.80      196.39      70.373      37.095    
  28.463      27.321      39.231      71.620      197.85      456.24      668.02      721.20      721.08      626.99    
  370.05      140.27      52.033      30.704      24.572      25.687      34.220      63.774      192.45      494.21    
  726.17      692.25      660.88      730.11      617.32      300.81      98.723      43.732      32.355      31.470    
  43.892      89.999      266.17      571.86      722.29      684.37      706.73      714.43      479.64      188.17    
  63.071      34.331      27.105      28.056      37.130      71.019      219.65      544.27      735.79      626.86    
  576.29      702.13      658.51      339.55      110.65      46.754      34.424      34.021      54.638      145.22    
  443.94      728.65      537.76      266.02      325.50      642.58      677.95      321.67      94.815      41.462    
  31.210      31.809      42.505      90.100      295.09      650.89      674.43      384.85      312.05      558.68    
  729.92      446.36      145.83      53.433      37.609      38.219      49.448      110.77      335.31      660.89    
  713.70      580.19      618.11      741.78      574.74      240.03      76.957      40.093      31.767      31.877    
  39.519      66.755      186.11      473.22      714.92      712.61      690.16      739.20      605.11      290.42    
  97.672      46.189      36.065      37.021      42.888      71.828      184.10      423.37      639.15      708.06    
  701.93      593.28      344.57      135.33      57.083      38.059      32.120      31.783      36.333      48.839    
  94.056      227.44      430.32      569.43      591.73      503.16      312.09      137.12      60.534      39.793    
  34.060      35.020      37.618      48.989      84.366      173.92      299.27      380.13      366.62      265.89    
  143.76      71.405      45.744      36.515      32.541      31.813      33.866      39.499      52.552      86.944    
  150.90      213.18      226.65      180.94      111.82      63.902      43.515      35.337      32.322      33.056    
  33.854      38.864      48.294      67.469      96.701      119.26      116.29      91.172      64.735      48.974    
  40.604      35.631      32.928      31.862      32.259      34.365      38.735      46.046      57.154      68.282    
  71.156      63.356      51.663      42.463      36.270      32.506      31.007      31.454      31.349      33.441    
  36.738      41.194      46.302      50.330      51.045      48.606      44.963      41.177      37.771      35.081    
  33.123      31.839      31.212      31.299      32.268      34.113      36.432      38.463      39.389      38.820    
  37.047      34.686      32.423      30.775      30.014      30.230      29.650      30.093      30.746      31.752    
  33.083      34.497      35.721      36.581      36.933      36.656      35.787      34.542      33.182      31.833    
  30.507      29.297      28.357      27.842      27.831      28.258      28.949      29.692      30.243      30.386    
  30.097      29.626      29.326      29.357      28.472      27.783      26.927      26.253      26.115      26.678    
  27.945      29.763      31.711      33.237      33.974      33.888      33.119      31.784      29.955      27.802    
  25.667      23.942      22.920      22.734      23.355      24.636      26.236      27.653      28.542      28.915    
  28.977      28.849      27.542      26.022      24.261      22.787      22.039      22.223      23.378      25.401    
  27.903      30.301      32.054      32.845      32.583      31.300      29.119      26.351      23.539      21.267    
  19.910      19.581      20.218      21.702      23.740      25.812      27.448      28.430      28.764      28.479    
  26.368      24.313      22.076      20.273      19.315      19.333      20.315      22.204      24.733      27.398    
  29.614      30.900      30.983      29.793      27.474      24.445      21.380      18.945      17.522      17.187    
  17.858      19.445      21.709      24.159      26.267      27.661      28.169      27.731      24.497      22.210    
  19.778      17.823      16.730      16.589      17.370      19.044      21.416      24.030      26.300      27.711    
  27.941      26.899      24.727      21.850      18.920      16.569      15.172      14.820      15.473      17.091    
  19.467      22.111      24.446      26.022      26.591      26.061      21.775      19.610      17.296      15.383    
  14.229      13.932      14.478      15.856      17.906      20.200      22.193      23.426      23.648      22.803    
  21.030      18.682      16.286      14.357      13.215      12.939      13.520      14.965      17.131      19.583    
  21.773      23.258      23.785      23.266      18.440      16.709      14.873      13.352      12.411      12.097    
  12.389      13.291      14.714      16.353      17.787      18.667      18.814      18.201      16.945      15.314    
  13.695      12.464      11.820      11.759      12.246      13.307      14.902      16.760      18.469      19.654    
  20.077      19.649      14.992      13.809      12.611      11.676      11.122      10.915      10.997      11.379    
  12.060      12.921      13.721      14.229      14.310      13.935      13.176      12.215      11.317      10.718    
  10.499      10.603      10.975      11.647      12.646      13.861      15.029      15.865      16.164      15.850    
  11.946      11.214      10.507      9.9763      9.6626      9.5153      9.4816      9.5645      9.7896      10.130    
  10.484      10.729      10.777      10.601      10.234      9.7720      9.3504      9.0840      9.0097      9.1018    
  9.3455      9.7746      10.418      11.213      11.989      12.541      12.725      12.503      9.6371      9.1920    
  8.7390      8.3509      8.0661      7.8899      7.8139      7.8328      7.9383      8.1007      8.2668      8.3838    
  8.4225      8.3808      8.2735      8.1292      7.9891      7.8952      7.8724      7.9291      8.0787      8.3500    
  8.7579      9.2571      9.7344      10.058      10.143      9.9832      8.1491      7.8827      7.6027      7.3367    
  7.1103      6.9431      6.8422      6.8049      6.8224      6.8793      6.9518      7.0160      7.0608      7.0917    
  7.1227      7.1688      7.2451      7.3616      7.5110      7.6656      7.7987      7.9136      8.0427      8.2073    
  8.3802      8.4947      8.4935      8.3673      7.3714      7.2388      7.1440      7.0817      7.0256      6.9431    
  6.8137      6.6446      6.4743      6.3513      6.3015      6.3150      6.3650      6.4375      6.5439      6.7083    
  6.9476      7.2534      7.5830      7.8651      8.0294      8.0518      7.9735      7.8695      7.7894      7.7267    
  7.6432      7.5186      7.1705      7.1321      7.1641      7.2333      7.2796      7.2452      7.1007      6.8584    
  6.5723      6.3177      6.1547      6.1007      6.1380      6.2477      6.4340      6.7122      7.0784      7.4953    
  7.9019      8.2317      8.4261      8.4511      8.3183      8.0868      7.8335      7.6093      7.4247      7.2752    
  7.5320      7.6071      7.7696      7.9449      8.0490      8.0332      7.8910      7.6330      7.2820      6.8955    
  6.5654      6.3739      6.3555      6.5128      6.8559      7.3963      8.0959      8.8459      9.5169      10.012    
  10.263      10.225      9.8947      9.3417      8.7101      8.1611      7.7840      7.5832      8.6525      9.0598    
  9.6853      10.353      10.862      11.071      10.932      10.454      9.6872      8.7575      7.8853      7.3050    
  7.1273      7.3618      8.0377      9.1932      10.746      12.479      14.088      15.245      15.684      15.288    
  14.154      12.583      10.972      9.6707      8.8710      8.5645      10.928      12.080      13.837      15.886    
  17.689      18.682      18.524      17.229      15.127      12.743      10.636      9.2239      8.6892      9.0534    
  10.335      12.590      15.818      19.743      23.688      26.689      27.649      26.138      22.858      18.887    
  15.246      12.566      11.018      10.523      14.756      17.330      21.467      26.814      32.580      36.541    
  36.049      31.457      25.461      19.796      15.303      12.449      11.302      11.848      14.084      18.249    
  24.840      34.955      50.128      65.294      69.389      58.930      42.934      30.497      22.398      17.224    
  14.507      13.782      20.446      25.869      36.364      57.842      90.355      115.01      110.91      81.633    
  50.680      32.112      22.473      17.107      14.979      15.747      19.488      27.140      43.962      87.962    
  167.61      243.04      260.84      207.61      121.83      60.325      34.176      23.912      19.331      18.374    
  28.088      40.241      79.057      176.50      309.98      394.30      380.30      273.39      140.94      61.351    
  33.026      23.045      19.336      20.366      26.337      41.422      96.369      253.39      474.02      608.26    
  632.77      555.15      352.22      149.76      57.536      32.518      25.058      23.931      37.234      68.164    
  188.39      438.46      651.86      711.80      708.20      606.29      353.20      133.46      49.976      29.634    
  23.714      24.952      33.697      64.710      200.33      509.96      726.65      669.30      640.81      731.77    
  635.66      313.51      101.02      42.674      30.770      29.701      46.909      111.09      344.51      672.84    
  707.10      558.44      598.23      735.87      580.78      242.66      74.255      35.823      27.398      28.657    
  40.028      90.958      308.90      670.74      654.73      329.35      254.78      512.87      724.32      459.78    
  150.27      52.390      35.271      34.602      54.002      146.03      448.43      731.83      531.74      256.61    
  315.22      634.77      678.02      323.11      94.297      40.214      29.901      30.928      43.238      102.28    
  347.70      697.48      562.68      182.14      110.70      379.16      712.05      507.63      170.51      56.763    
  37.599      37.581      61.645      184.49      538.46      697.96      273.62      23.732      56.383      423.64    
  711.68      402.17      117.18      45.201      32.783      33.204      45.151      103.53      346.16      690.53    
  556.38      182.64      112.82      384.24      719.33      511.48      172.09      58.072      39.237      40.283    
  54.634      138.44      421.37      720.26      585.73      336.41      390.05      672.08      661.28      305.55    
  92.382      43.025      33.172      33.051      41.373      74.272      220.11      539.62      731.99      631.45    
  583.73      709.44      665.09      343.37      113.22      49.325      37.639      38.971      46.184      85.198    
  236.24      521.49      709.17      717.23      723.76      679.28      432.26      170.71      64.581      40.162    
  33.312      32.720      37.552      51.905      107.81      269.50      495.99      628.46      644.79      567.51    
  367.73      162.02      67.110      41.999      35.625      36.824      39.905      53.993      102.40      223.02    