Cu: benchmark                           
   4.70000000000000     
     1.000000    0.000000    0.000000
     0.000000    1.000000    0.000000
     0.000000    0.000000    1.000000
   Cu
   8
Direct
  0.190214  0.981532  0.110115
  0.915883  0.304189  0.347892
  0.921231  0.355046  0.825261
  0.700686  0.962946  0.113908
  0.399681  0.300352  0.350343
  0.908490  0.906124  0.618559
  0.409617  0.864244  0.551575
  0.416909  0.294004  0.835251
 
   28   28   28
 0.37786370979E+02 0.60879702002E+02 0.14693528895E+03 0.33968903455E+03 0.53816703366E+03
 0.62357765347E+03 0.61341728604E+03 0.48741074043E+03 0.26628242542E+03 0.10524385897E+03
 0.48180855584E+02 0.33055084489E+02 0.27926825815E+02 0.28100393001E+02 0.33196050197E+02
 0.46473924240E+02 0.92553362531E+02 0.22180263211E+03 0.40998406359E+03 0.53414128593E+03
 0.54614189526E+03 0.44789084073E+03 0.26456816086E+03 0.11390783664E+03 0.52349199215E+02
 0.35256211120E+02 0.29996987129E+02 0.30762707369E+02 0.36442819962E+02 0.53286012287E+02
 0.11189700445E+03 0.25268370422E+03 0.42389056795E+03 0.51760307940E+03 0.50237056251E+03
 0.37604555566E+03 0.19948132548E+03 0.86171425818E+02 0.47062145004E+02 0.35289806508E+02
 0.30812155175E+02 0.30531810296E+02 0.34069952997E+02 0.43054051373E+02 0.69067654138E+02
 0.14270820516E+03 0.26568988830E+03 0.36588220545E+03 0.37758463065E+03 0.29444456482E+03
 0.16834897057E+03 0.79755459264E+02 0.44897467763E+02 0.33484063312E+02 0.29531494927E+02
 0.30426157456E+02 0.34191444763E+02 0.44235373879E+02 0.71886579902E+02 0.14025944629E+03
 0.23909075588E+03 0.30588971333E+03 0.29388415184E+03 0.21114546200E+03 0.11755645955E+03
 0.64609985557E+02 0.45317483298E+02 0.37493327573E+02 0.33947381241E+02 0.33184114556E+02
 0.34889386771E+02 0.39845329861E+02 0.50963055132E+02 0.78473248795E+02 0.12771603391E+03
 0.17384479980E+03 0.17965010511E+03 0.13992708875E+03 0.87320463120E+02 0.53360884428E+02
 0.38414684492E+02 0.31533184376E+02 0.28952457474E+02 0.29785906138E+02 0.32274355286E+02
 0.37894578552E+02 0.48552736533E+02 0.70462238700E+02 0.10364653700E+03 0.12897372837E+03
 0.12569887916E+03 0.97959474522E+02 0.69251870489E+02 0.52904221108E+02 0.44952962700E+02
 0.40429642246E+02 0.37763869690E+02 0.36348475980E+02 0.36218774296E+02 0.37863551111E+02
 0.41990974067E+02 0.49581046334E+02 0.61581690641E+02 0.72974995663E+02 0.74325136616E+02
 0.64028910607E+02 0.50585798788E+02 0.40712689549E+02 0.34288150157E+02 0.30431687100E+02
 0.28920071240E+02 0.29520296464E+02 0.31508105992E+02 0.34208012881E+02 0.38639704885E+02
 0.45169345466E+02 0.53354612137E+02 0.59945103205E+02 0.60977080448E+02 0.57027759037E+02
 0.52360978545E+02 0.49047207193E+02 0.46802948260E+02 0.45102797870E+02 0.43195066265E+02
 0.40859283879E+02 0.38673316340E+02 0.37371337781E+02 0.37512101207E+02 0.39079099826E+02
 0.41363918324E+02 0.43187269651E+02 0.43268126753E+02 0.41307490916E+02 0.38298403742E+02
 0.35161037159E+02 0.32514393881E+02 0.30695673479E+02 0.29882896697E+02 0.30150413827E+02
 0.32219706462E+02 0.32711475149E+02 0.34011902419E+02 0.36282905020E+02 0.39125543974E+02
 0.41840020116E+02 0.43782143778E+02 0.45206618173E+02 0.46845511146E+02 0.49141789376E+02
 0.52049980429E+02 0.54299866575E+02 0.53319135496E+02 0.48717265403E+02 0.43070779480E+02
 0.38458177691E+02 0.35376038811E+02 0.33839126842E+02 0.33389605700E+02 0.33360917766E+02
 0.33365560317E+02 0.33314833201E+02 0.33266385483E+02 0.33184773396E+02 0.33042709520E+02
 0.32750900404E+02 0.32440333763E+02 0.32226033684E+02 0.34849207115E+02 0.33034780760E+02
 0.31896103080E+02 0.31742220431E+02 0.32544375428E+02 0.34165284458E+02 0.36354442527E+02
 0.39685598122E+02 0.44795833541E+02 0.52534746208E+02 0.64052849832E+02 0.74682917064E+02
 0.75496357954E+02 0.64860138119E+02 0.50942633070E+02 0.40825905744E+02 0.34551517426E+02
 0.30793914269E+02 0.28857034490E+02 0.28117772709E+02 0.28334616900E+02 0.29445753656E+02
 0.31388212256E+02 0.33773130769E+02 0.36026421137E+02 0.37449534054E+02 0.37648619569E+02
 0.36625398225E+02 0.39613740326E+02 0.34888483970E+02 0.31224373564E+02 0.29117124223E+02
 0.28544652628E+02 0.29391736438E+02 0.31726411516E+02 0.36266583717E+02 0.44062279656E+02
 0.58416137139E+02 0.82051581819E+02 0.10443473699E+03 0.10762121454E+03 0.88309924068E+02
 0.62049118863E+02 0.43873889821E+02 0.34176665833E+02 0.28706716235E+02 0.25905983985E+02
 0.24938208891E+02 0.25509372240E+02 0.27652987833E+02 0.31427443717E+02 0.36412719539E+02
 0.41757526603E+02 0.46097891942E+02 0.47221601152E+02 0.44385965907E+02 0.46632226184E+02
 0.37606355243E+02 0.31340261903E+02 0.27488634946E+02 0.25876423843E+02 0.26155672291E+02
 0.28434002967E+02 0.33534870785E+02 0.42916632834E+02 0.61806220482E+02 0.93658771862E+02
 0.12359404770E+03 0.12832443679E+03 0.10369410824E+03 0.69204828985E+02 0.45333507332E+02
 0.33353963652E+02 0.26945725279E+02 0.23742339122E+02 0.22823440086E+02 0.23822503034E+02
 0.26951790575E+02 0.32498701321E+02 0.40471994034E+02 0.51081059923E+02 0.61245042989E+02
 0.64175400995E+02 0.57449387594E+02 0.54078755715E+02 0.39919626273E+02 0.31321080230E+02
 0.26178559027E+02 0.23788718682E+02 0.23610351976E+02 0.25608051881E+02 0.30526524554E+02
 0.39652731347E+02 0.57387087852E+02 0.86796586060E+02 0.11449972983E+03 0.11907817082E+03
 0.96565897852E+02 0.64933876735E+02 0.42762479201E+02 0.31213633369E+02 0.24855631824E+02
 0.21724716623E+02 0.21023191386E+02 0.22430256030E+02 0.26358554664E+02 0.33355712154E+02
 0.44467345697E+02 0.61469937225E+02 0.78639639738E+02 0.83646885952E+02 0.72277932918E+02
 0.56415663227E+02 0.39948748157E+02 0.30229391994E+02 0.24455265650E+02 0.21590568252E+02
 0.21002828039E+02 0.22545064001E+02 0.26707935995E+02 0.34195105902E+02 0.46667672482E+02
 0.65643787446E+02 0.83432431817E+02 0.86418252628E+02 0.71880370992E+02 0.51616983448E+02
 0.36693436843E+02 0.27647915211E+02 0.22197479758E+02 0.19500362113E+02 0.19077888106E+02
 0.20773417598E+02 0.25107934425E+02 0.32764975316E+02 0.45314758479E+02 0.65108262559E+02
 0.85230115478E+02 0.91084730391E+02 0.77770118647E+02 0.50465255532E+02 0.36558314598E+02
 0.27704675843E+02 0.22113163502E+02 0.19136319604E+02 0.18230273727E+02 0.19210509862E+02
 0.22307397685E+02 0.27757282152E+02 0.35361814201E+02 0.44665658398E+02 0.52614480526E+02
 0.53848557671E+02 0.47289327514E+02 0.37757628419E+02 0.29452009666E+02 0.23163748887E+02
 0.19112563467E+02 0.17118081923E+02 0.17063758196E+02 0.18856944785E+02 0.23027517375E+02
 0.30190928324E+02 0.41177860250E+02 0.57608036185E+02 0.74100247178E+02 0.78910594438E+02
 0.67998814347E+02 0.39925203019E+02 0.30842831989E+02 0.24011983032E+02 0.19341453699E+02
 0.16661225525E+02 0.15621841191E+02 0.16075784649E+02 0.18051247097E+02 0.21512412681E+02
 0.26008837072E+02 0.30495311044E+02 0.33565603041E+02 0.33924197506E+02 0.31383652839E+02
 0.27120232078E+02 0.22492606350E+02 0.18544758819E+02 0.15934895469E+02 0.14732087353E+02
 0.15024654860E+02 0.16747316534E+02 0.20264635279E+02 0.26083624931E+02 0.34027074777E+02
 0.44144333622E+02 0.53688874303E+02 0.56449727782E+02 0.50217991389E+02 0.30012029923E+02
 0.24567489945E+02 0.19801348660E+02 0.16342736111E+02 0.14237311735E+02 0.13262441139E+02
 0.13289660497E+02 0.14281105348E+02 0.16183819610E+02 0.18606710475E+02 0.20859654778E+02
 0.22255461929E+02 0.22380085863E+02 0.21218148701E+02 0.19089079062E+02 0.16619105567E+02
 0.14360441870E+02 0.12932689110E+02 0.12442037764E+02 0.12905089352E+02 0.14444814583E+02
 0.17109673397E+02 0.21265766251E+02 0.26636120231E+02 0.32185273178E+02 0.36579693157E+02
 0.37773877203E+02 0.35027744769E+02 0.22121724995E+02 0.18831501125E+02 0.15754503460E+02
 0.13359812119E+02 0.11800506909E+02 0.10997149092E+02 0.10820935767E+02 0.11169914629E+02
 0.12029208487E+02 0.13183701760E+02 0.14212045521E+02 0.14821926545E+02 0.14854736150E+02
 0.14366147542E+02 0.13390562451E+02 0.12210092697E+02 0.11104427687E+02 0.10433815131E+02
 0.10377110535E+02 0.10819215900E+02 0.12016637374E+02 0.13977205390E+02 0.16723142300E+02
 0.20098395651E+02 0.23388536251E+02 0.25669606907E+02 0.26208808829E+02 0.24866246340E+02
 0.16250769187E+02 0.14298079927E+02 0.12336246945E+02 0.10712302602E+02 0.96142244080E+01
 0.89949999170E+01 0.87414326488E+01 0.88068728833E+01 0.91118811737E+01 0.95602093601E+01
 0.99582972262E+01 0.10191990433E+02 0.10199752637E+02 0.10049539468E+02 0.97122216246E+01
 0.92643474138E+01 0.89113006540E+01 0.86837527466E+01 0.88026559267E+01 0.92100701401E+01
 0.99722824459E+01 0.11332651215E+02 0.13158014040E+02 0.15146228305E+02 0.17003471339E+02
 0.18249899710E+02 0.18517114144E+02 0.17788910731E+02 0.12310958192E+02 0.11133501717E+02
 0.99094845854E+01 0.88805336939E+01 0.81537611942E+01 0.77092421094E+01 0.74314909756E+01
 0.73367325884E+01 0.73562193567E+01 0.74456221368E+01 0.75420820115E+01 0.76070830961E+01
 0.76374336213E+01 0.76276101248E+01 0.76377104607E+01 0.75700510669E+01 0.75814620284E+01
 0.76826578493E+01 0.78924738159E+01 0.83015232433E+01 0.88256200739E+01 0.95988189721E+01
 0.10691078638E+02 0.11888160185E+02 0.12913342800E+02 0.13538987219E+02 0.13651890600E+02
 0.13215020331E+02 0.99150109466E+01 0.92384219474E+01 0.85673120695E+01 0.79978944727E+01
 0.75334920519E+01 0.71918746402E+01 0.69163057554E+01 0.66773963127E+01 0.65004475281E+01
 0.64073670812E+01 0.63831095232E+01 0.63910233975E+01 0.64561444475E+01 0.65018790841E+01
 0.66085169534E+01 0.67383221194E+01 0.69121882945E+01 0.72274907406E+01 0.75616676034E+01
 0.79485631418E+01 0.84130657412E+01 0.88871641263E+01 0.93757275698E+01 0.99371237420E+01
 0.10445098918E+02 0.10746432574E+02 0.10755466725E+02 0.10452614009E+02 0.88246439415E+01
 0.84536890420E+01 0.80978698855E+01 0.77838110392E+01 0.75175849190E+01 0.72200574554E+01
 0.69080346115E+01 0.65684448682E+01 0.62891301108E+01 0.60910274629E+01 0.59946477074E+01
 0.59780195707E+01 0.60233715836E+01 0.61305744850E+01 0.62702968721E+01 0.65258240573E+01
 0.68342485414E+01 0.72235722005E+01 0.77031230078E+01 0.81354719133E+01 0.85053794506E+01
 0.88553052375E+01 0.91326089863E+01 0.93234550855E+01 0.94261563145E+01 0.94643298480E+01
 0.93669768987E+01 0.91404905654E+01 0.86782006028E+01 0.85115328011E+01 0.83951649979E+01
 0.82472659550E+01 0.80794161267E+01 0.78146322444E+01 0.74969375838E+01 0.71281517642E+01
 0.67615407711E+01 0.64230063708E+01 0.61672263842E+01 0.60589595540E+01 0.60449725618E+01
 0.61949165913E+01 0.64562840318E+01 0.68792396458E+01 0.74707534138E+01 0.81058915078E+01
 0.87401180348E+01 0.93120556952E+01 0.97134865342E+01 0.98962022257E+01 0.99044303342E+01
 0.97965579341E+01 0.95930107699E+01 0.93790624621E+01 0.91539080196E+01 0.89079683685E+01
 0.93430166759E+01 0.94364421654E+01 0.96836162623E+01 0.99398890306E+01 0.10039670850E+02
 0.99213577594E+01 0.95808420008E+01 0.90598332289E+01 0.83856675315E+01 0.76743333743E+01
 0.70394883982E+01 0.66356153004E+01 0.65348075443E+01 0.67259052716E+01 0.72314871590E+01
 0.80407954706E+01 0.91408954099E+01 0.10386024517E+02 0.11520247538E+02 0.12389512027E+02
 0.12876068915E+02 0.12880099952E+02 0.12411608187E+02 0.11662950094E+02 0.10870403613E+02
 0.10180654569E+02 0.97024829105E+01 0.94262420672E+01 0.10927570311E+02 0.11544916295E+02
 0.12509654485E+02 0.13585324822E+02 0.14394901908E+02 0.14701037388E+02 0.14325224706E+02
 0.13354437745E+02 0.11912228178E+02 0.10298975530E+02 0.88802022555E+01 0.79123698122E+01
 0.75959615953E+01 0.78579104189E+01 0.87449418699E+01 0.10283707862E+02 0.12333215032E+02
 0.14691322763E+02 0.16969739130E+02 0.18622968891E+02 0.19219748171E+02 0.18700544991E+02
 0.17292342990E+02 0.15408076622E+02 0.13564808398E+02 0.12090411989E+02 0.11174991705E+02
 0.10794908620E+02 0.13667147890E+02 0.15158939553E+02 0.17466303708E+02 0.20220370402E+02
 0.22655533028E+02 0.23930736807E+02 0.23464734452E+02 0.21354087654E+02 0.18219283580E+02
 0.14842010107E+02 0.11991142378E+02 0.10106018511E+02 0.93686893888E+01 0.97786346856E+01
 0.11277412001E+02 0.13902367032E+02 0.17670479812E+02 0.22279923849E+02 0.26979658247E+02
 0.30623282055E+02 0.31690460852E+02 0.29712972020E+02 0.25916461929E+02 0.21642077290E+02
 0.17887111620E+02 0.15185260194E+02 0.13616365101E+02 0.13133861096E+02 0.17707871413E+02
 0.20666805568E+02 0.25548568790E+02 0.32235156748E+02 0.40099770367E+02 0.45580151611E+02
 0.44418239978E+02 0.37379621918E+02 0.29090964390E+02 0.22016170476E+02 0.16626736524E+02
 0.13278712203E+02 0.11925016682E+02 0.12487550112E+02 0.14888368869E+02 0.19268769043E+02
 0.26112906073E+02 0.36495180189E+02 0.51536953775E+02 0.65688252516E+02 0.68433768998E+02
 0.57670706651E+02 0.42757012226E+02 0.31552234609E+02 0.24190603108E+02 0.19517907789E+02
 0.17062928424E+02 0.16529324011E+02 0.22813605656E+02 0.28393277555E+02 0.39322358322E+02
 0.62026151589E+02 0.96307869671E+02 0.12173681318E+03 0.11636607553E+03 0.84822388339E+02
 0.52267187876E+02 0.32953063896E+02 0.22903807104E+02 0.17334853263E+02 0.15139497010E+02
 0.15823469843E+02 0.19347555002E+02 0.26345393475E+02 0.39891274681E+02 0.71119796413E+02
 0.12568647557E+03 0.17668843363E+03 0.18458618741E+03 0.14295541086E+03 0.86032288990E+02
 0.48753159397E+02 0.32334373908E+02 0.24634173914E+02 0.21087307502E+02 0.20563057036E+02
 0.28507133972E+02 0.38463559676E+02 0.66872605982E+02 0.13777715757E+03 0.23994399085E+03
 0.30831699899E+03 0.29434052790E+03 0.20655411475E+03 0.10770492833E+03 0.51476159646E+02
 0.30506480970E+02 0.21932883932E+02 0.18647055338E+02 0.19405169367E+02 0.24148602116E+02
 0.34553816889E+02 0.63062056890E+02 0.14195892284E+03 0.27174249056E+03 0.37628141399E+03
 0.38985932011E+03 0.30518104708E+03 0.17336793045E+03 0.79346131867E+02 0.42086700188E+02
 0.29791872981E+02 0.25020878790E+02 0.24676054940E+02 0.33624968048E+02 0.50523948731E+02
 0.11044344494E+03 0.25451913348E+03 0.42927541164E+03 0.52459419336E+03 0.50784602748E+03
 0.37711435211E+03 0.19565419299E+03 0.79193675050E+02 0.38714529525E+02 0.26441203208E+02
 0.22064036974E+02 0.22753344602E+02 0.28418685201E+02 0.42523266131E+02 0.90500849106E+02
 0.22399667143E+03 0.41640529572E+03 0.54160661822E+03 0.55420309053E+03 0.45618749437E+03
 0.26991469911E+03 0.11514953063E+03 0.51514462756E+02 0.33778923190E+02 0.28029196482E+02
 0.28039252042E+02 0.36980944721E+02 0.60135670623E+02 0.14687685100E+03 0.34113032470E+03
 0.54104189438E+03 0.62707175659E+03 0.61627224806E+03 0.48850596230E+03 0.26548035439E+03
 0.10316366869E+03 0.45538018162E+02 0.30226099056E+02 0.25136699452E+02 0.25639407097E+02
 0.31473646549E+02 0.47062558143E+02 0.10376252235E+03 0.25912262968E+03 0.46896132406E+03
 0.59041025611E+03 0.60034641376E+03 0.50736294728E+03 0.30897135049E+03 0.13109333278E+03
 0.55812578599E+02 0.35661199226E+02 0.29682353230E+02 0.30116094527E+02 0.47072371118E+02
 0.10567057183E+03 0.31957678328E+03 0.63986901615E+03 0.71599798001E+03 0.60909862930E+03
 0.64967283051E+03 0.73695884470E+03 0.53856239131E+03 0.21773551068E+03 0.71058526989E+02
 0.38186016100E+02 0.30481614604E+02 0.30962709053E+02 0.39138668680E+02 0.68681576031E+02
 0.19428019160E+03 0.48090700201E+03 0.71130417275E+03 0.71457048468E+03 0.70306660799E+03
 0.72638627318E+03 0.55251529211E+03 0.24868527613E+03 0.83890250040E+02 0.42063764389E+02
 0.33367471890E+02 0.34699746678E+02 0.43741366468E+02 0.83878573065E+02 0.23676101542E+03
 0.52234925522E+03 0.70975152340E+03 0.72261903779E+03 0.73240093829E+03 0.67800728551E+03
 0.42208703377E+03 0.16417932134E+03 0.62186931000E+02 0.38723809625E+02 0.32212887986E+02
 0.32189821875E+02 0.38053128393E+02 0.55844349625E+02 0.12660448379E+03 0.31685513205E+03
 0.55541037458E+03 0.67734205630E+03 0.68679508891E+03 0.59787468107E+03 0.37625272344E+03
 0.15865970732E+03 0.63129377254E+02 0.38642150357E+02 0.32436965120E+02 0.33885463734E+02
 0.39128926654E+02 0.59117260632E+02 0.13191825948E+03 0.30260631121E+03 0.49728260177E+03
 0.59441848066E+03 0.57831138144E+03 0.44308899719E+03 0.23845137653E+03 0.99964689781E+02
 0.52034594035E+02 0.38781810610E+02 0.33897285896E+02 0.33362172557E+02 0.36656412916E+02
 0.45526531144E+02 0.72532145446E+02 0.15025974885E+03 0.27993577300E+03 0.38501278279E+03
 0.39733484563E+03 0.31043598870E+03 0.17756086632E+03 0.83580466453E+02 0.46741938231E+02
 0.35014772531E+02 0.31160433801E+02 0.32425611442E+02 0.35130673310E+02 0.44122041484E+02
 0.67645257712E+02 0.12541436681E+03 0.21076532635E+03 0.26991838623E+03 0.25907476597E+03
 0.18674935898E+03 0.10727136830E+03 0.62892559957E+02 0.46271908070E+02 0.39096767528E+02
 0.35662890265E+02 0.34618929266E+02 0.35696012432E+02 0.39586849939E+02 0.48095747998E+02
 0.67762972549E+02 0.10274678834E+03 0.13612411154E+03 0.14046775640E+03 0.11167883160E+03
 0.74085238928E+02 0.49656859632E+02 0.38062675266E+02 0.32272191808E+02 0.30165077492E+02
 0.31060709762E+02 0.32449730182E+02 0.36727939340E+02 0.44108049494E+02 0.57223097621E+02
 0.76292644348E+02 0.91143874167E+02 0.90017714345E+02 0.75201116842E+02 0.59569163811E+02
 0.49802545570E+02 0.43916202623E+02 0.40124208927E+02 0.37647076840E+02 0.36082725369E+02
 0.35464928120E+02 0.36176348509E+02 0.38703504507E+02 0.43145180807E+02 0.49263547906E+02
 0.54771982117E+02 0.55511872367E+02 0.50716244512E+02 0.43978675464E+02 0.38121410893E+02
 0.33644730194E+02 0.30850354702E+02 0.29764777943E+02 0.30292196090E+02 0.31176906605E+02
 0.32825854989E+02 0.35500154203E+02 0.39259442152E+02 0.43528501567E+02 0.47058113943E+02
 0.48573930901E+02 0.48042035913E+02 0.46607104559E+02 0.45025592549E+02 0.43535827151E+02
 0.42020274432E+02 0.40152657300E+02 0.38010176876E+02 0.35947854295E+02 0.34414724956E+02
 0.33823600643E+02 0.34185265883E+02 0.35144805345E+02 0.36063209332E+02 0.36345889959E+02
 0.35809145513E+02 0.34668892535E+02 0.33209235846E+02 0.31786399615E+02 0.30686210127E+02
 0.30143601713E+02 0.30332671511E+02 0.31071368238E+02 0.30874215052E+02 0.31022549231E+02
 0.31791535486E+02 0.33142024746E+02 0.34885036774E+02 0.36763042259E+02 0.38674484065E+02
 0.40719663176E+02 0.42751696151E+02 0.44247290414E+02 0.44645270207E+02 0.43403851782E+02
 0.40601778722E+02 0.37042091410E+02 0.33576084403E+02 0.30856133268E+02 0.29101111039E+02
 0.28237870474E+02 0.28058936376E+02 0.28432583596E+02 0.29184413874E+02 0.30171924572E+02
 0.31065648594E+02 0.31593810060E+02 0.31720640944E+02 0.31593567276E+02 0.31354878882E+02
 0.31968806532E+02 0.30108839274E+02 0.28426532364E+02 0.27426140731E+02 0.27303960678E+02
 0.28227589554E+02 0.30120087945E+02 0.33028015321E+02 0.36903355439E+02 0.41229527485E+02
 0.45155053865E+02 0.47635417169E+02 0.47099662834E+02 0.43393285199E+02 0.38226018165E+02
 0.33089749950E+02 0.28774579510E+02 0.25753538787E+02 0.24058284623E+02 0.23505767846E+02
 0.24071528965E+02 0.25624964067E+02 0.27946469050E+02 0.30510707284E+02 0.32662294145E+02
 0.33949577353E+02 0.34210933074E+02 0.33459374649E+02 0.33320416225E+02 0.29917504508E+02
 0.26807378548E+02 0.24668454896E+02 0.23742968896E+02 0.24173975625E+02 0.25914190776E+02
 0.29095802998E+02 0.33740614791E+02 0.39293483608E+02 0.44890864219E+02 0.48961637564E+02
 0.49002951618E+02 0.44661244257E+02 0.38328537021E+02 0.32109445984E+02 0.26901136474E+02
 0.23290769242E+02 0.21308789914E+02 0.20759145470E+02 0.21564694520E+02 0.23650643837E+02
 0.26907042088E+02 0.30781576646E+02 0.34400407663E+02 0.36817438296E+02 0.37431862907E+02
 0.36096486756E+02 0.34181637786E+02 0.29573671934E+02 0.25450917764E+02 0.22603071207E+02
 0.21218085959E+02 0.21295461919E+02 0.22793942535E+02 0.25807433846E+02 0.30405548154E+02
 0.36084879527E+02 0.41868798534E+02 0.46105022431E+02 0.46416564917E+02 0.42410491889E+02
 0.36243071954E+02 0.29960775802E+02 0.24626738567E+02 0.20974932474E+02 0.19024481160E+02
 0.18612888286E+02 0.19666486648E+02 0.22139246228E+02 0.26069075925E+02 0.30919611894E+02
 0.35669504000E+02 0.39096468261E+02 0.40021104448E+02 0.38081795463E+02 0.33467114240E+02
 0.28326004963E+02 0.23713489503E+02 0.20467124140E+02 0.18769726537E+02 0.18518064114E+02
 0.19669715282E+02 0.22255287838E+02 0.26313294381E+02 0.31318720024E+02 0.36160338970E+02
 0.39458848031E+02 0.39741179727E+02 0.36775941355E+02 0.31869255517E+02 0.26489528201E+02
 0.21762769066E+02 0.18475170011E+02 0.16735156745E+02 0.16464946816E+02 0.17667440681E+02
 0.20353786710E+02 0.24623974845E+02 0.29951460129E+02 0.35200380824E+02 0.39089024575E+02
 0.40155992704E+02 0.37900030299E+02 0.30679006879E+02 0.25822414566E+02 0.21392877860E+02
 0.18148196649E+02 0.16292445185E+02 0.15758505197E+02 0.16506476638E+02 0.18498424739E+02
 0.21691734868E+02 0.25564039234E+02 0.29143844394E+02 0.31380326059E+02 0.31528978706E+02
 0.29577269750E+02 0.26105861175E+02 0.22103740559E+02 0.18505577250E+02 0.15950150382E+02
 0.14633096352E+02 0.14564517346E+02 0.15807548335E+02 0.18392567812E+02 0.22410516158E+02
 0.27426388962E+02 0.32324444906E+02 0.35843387757E+02 0.36791786372E+02 0.34770562838E+02
 0.26256455535E+02 0.22331304257E+02 0.18679651834E+02 0.15917680576E+02 0.14240502379E+02
 0.13594056182E+02 0.13913978620E+02 0.15183276257E+02 0.17296125399E+02 0.19836853309E+02
 0.22110869995E+02 0.23471655627E+02 0.23520215870E+02 0.22316462256E+02 0.20129876196E+02
 0.17552478689E+02 0.15201364303E+02 0.13579972531E+02 0.12892774093E+02 0.13059023320E+02
 0.14221183044E+02 0.16400732384E+02 0.19641126719E+02 0.23657469252E+02 0.27567984279E+02
 0.30292124506E+02 0.30992291622E+02 0.29465106576E+02 0.21201168103E+02 0.18432311870E+02
 0.15803177305E+02 0.13769109645E+02 0.12508586937E+02 0.11935757775E+02 0.11915720959E+02
 0.12475617060E+02 0.13549376216E+02 0.14903142153E+02 0.16098877868E+02 0.16792909871E+02
 0.16793362169E+02 0.16144114242E+02 0.14944664024E+02 0.13506654806E+02 0.12201874716E+02
 0.11379245989E+02 0.11223109902E+02 0.11548710385E+02 0.12528201984E+02 0.14207655364E+02
 0.16547986154E+02 0.19369646492E+02 0.22104475522E+02 0.24014822102E+02 0.24502299070E+02
 0.23443664707E+02 0.16482403527E+02 0.14680747378E+02 0.12930169909E+02 0.11554878168E+02
 0.10663545901E+02 0.10190388126E+02 0.10017200224E+02 0.10139944392E+02 0.10513909154E+02
 0.11079019975E+02 0.11595038115E+02 0.11902062975E+02 0.11895176641E+02 0.11597223542E+02
 0.11058610272E+02 0.10379993608E+02 0.98223821024E+01 0.94887456334E+01 0.95343496664E+01
 0.98788666194E+01 0.10569826573E+02 0.11778415449E+02 0.13446217686E+02 0.15318307219E+02
 0.17079839060E+02 0.18294245265E+02 0.18602341424E+02 0.17927402884E+02 0.12755173100E+02
 0.11606760341E+02 0.10422574414E+02 0.94648967836E+01 0.87967833637E+01 0.84004979526E+01
 0.81859529260E+01 0.81552146572E+01 0.82648670308E+01 0.84593745583E+01 0.86339327958E+01
 0.87437936723E+01 0.87640225974E+01 0.86696195175E+01 0.85401231641E+01 0.83261128511E+01
 0.81773113174E+01 0.81216477624E+01 0.82159377131E+01 0.85263225602E+01 0.89825553177E+01
 0.97406182323E+01 0.10869774831E+02 0.12120434150E+02 0.13227264457E+02 0.13933985563E+02
 0.14080558779E+02 0.13647877467E+02 0.10120995018E+02 0.94156059148E+01 0.87022904398E+01
 0.80845926726E+01 0.76019258301E+01 0.72949554820E+01 0.70760646695E+01 0.69466499984E+01
 0.69094083445E+01 0.69174607888E+01 0.69574289149E+01 0.69651160712E+01 0.70076717456E+01
 0.70278967007E+01 0.70800392452E+01 0.71398053666E+01 0.72212656336E+01 0.74124297163E+01
 0.76172287406E+01 0.79062981832E+01 0.82924851455E+01 0.87209772269E+01 0.92646647335E+01
 0.99341306588E+01 0.10551515971E+02 0.10932317490E+02 0.10982837896E+02 0.10687555892E+02
 0.86012581623E+01 0.82200594186E+01 0.78564312404E+01 0.75412224388E+01 0.72822508018E+01
 0.70552873025E+01 0.68298184496E+01 0.65808894471E+01 0.63564677863E+01 0.61816209712E+01
 0.61261836669E+01 0.61105683982E+01 0.61552932514E+01 0.62357179024E+01 0.63378472763E+01
 0.65447007454E+01 0.67907194133E+01 0.71299600920E+01 0.75137480462E+01 0.78555215586E+01
 0.81695460081E+01 0.84607345464E+01 0.86841692252E+01 0.88820991792E+01 0.90540815046E+01
 0.91599394629E+01 0.91228433151E+01 0.89223366843E+01 0.80281690286E+01 0.78334916665E+01
 0.76795646869E+01 0.75608420178E+01 0.74550204055E+01 0.72474649256E+01 0.69856633542E+01
 0.66517281996E+01 0.63221166858E+01 0.60512501399E+01 0.58721247375E+01 0.58258250276E+01
 0.58543659990E+01 0.59757671267E+01 0.61547206461E+01 0.64446351818E+01 0.68365577497E+01
 0.72606724534E+01 0.77332704706E+01 0.81768032597E+01 0.84597306711E+01 0.86448820231E+01
 0.87319797650E+01 0.87401626889E+01 0.86780746670E+01 0.85674314930E+01 0.84233716902E+01
 0.82337743536E+01 0.81448881685E+01 0.81129465264E+01 0.81636332072E+01 0.81856140410E+01
 0.81343751962E+01 0.79595919327E+01 0.76907894527E+01 0.73279851134E+01 0.69106486155E+01
 0.65351786215E+01 0.62138075096E+01 0.60452647657E+01 0.60185501290E+01 0.61645421430E+01
 0.65044156156E+01 0.69899817244E+01 0.76521020668E+01 0.83990511583E+01 0.90597446069E+01
 0.96124667649E+01 0.99809283052E+01 0.10081034609E+02 0.99022154214E+01 0.95603182767E+01
 0.91545982575E+01 0.87614119105E+01 0.84696932478E+01 0.82649137022E+01 0.90780767951E+01
 0.93620349347E+01 0.98243196235E+01 0.10290295616E+02 0.10579782252E+02 0.10613077159E+02
 0.10322023052E+02 0.97869348803E+01 0.90229697179E+01 0.81490088999E+01 0.73734853142E+01
 0.68649269738E+01 0.67205568218E+01 0.69195439329E+01 0.75208174885E+01 0.85397183971E+01
 0.98612143378E+01 0.11354386984E+02 0.12737330404E+02 0.13731104630E+02 0.14167554772E+02
 0.13980795961E+02 0.13229358761E+02 0.12090565802E+02 0.10899118533E+02 0.99204787809E+01
 0.92997999749E+01 0.90329884787E+01 0.11028545883E+02 0.11987828326E+02 0.13411610235E+02
 0.15039597112E+02 0.16375700064E+02 0.17022175909E+02 0.16712753440E+02 0.15503594772E+02
 0.13671046970E+02 0.11596363896E+02 0.97867620410E+01 0.85647388308E+01 0.81161940103E+01
 0.84454968445E+01 0.95187118052E+01 0.11428140922E+02 0.14091787213E+02 0.17180689796E+02
 0.20196449086E+02 0.22388483115E+02 0.23079404270E+02 0.22064066590E+02 0.19768256509E+02
 0.16910583189E+02 0.14245999858E+02 0.12245745704E+02 0.11068038280E+02 0.10691868303E+02
 0.14344352428E+02 0.16536880606E+02 0.19931346110E+02 0.24133009857E+02 0.28199901337E+02
 0.30681722100E+02 0.30171335809E+02 0.26847776941E+02 0.22250718658E+02 0.17610707192E+02
 0.13849441095E+02 0.11447830937E+02 0.10467698240E+02 0.10955484772E+02 0.12840381987E+02
 0.16219740254E+02 0.21350246042E+02 0.28176396442E+02 0.36522970211E+02 0.43875274972E+02
 0.45529234262E+02 0.40356691706E+02 0.32450056799E+02 0.25335104938E+02 0.19728581753E+02
 0.15950809298E+02 0.13921857675E+02 0.13452037551E+02 0.19228492972E+02 0.23737604395E+02
 0.31582779274E+02 0.45315813715E+02 0.64966986367E+02 0.79545225470E+02 0.76540651764E+02
 0.58611475124E+02 0.39807301913E+02 0.27550849769E+02 0.19997150598E+02 0.15571102347E+02
 0.13817322530E+02 0.14467070755E+02 0.17548396801E+02 0.23569926776E+02 0.34450170995E+02
 0.57538552130E+02 0.97344063733E+02 0.13522347836E+03 0.14149283787E+03 0.11074896853E+03
 0.68978927389E+02 0.41287440279E+02 0.28030858973E+02 0.21168189171E+02 0.17892584894E+02
 0.17360125896E+02 0.25729254876E+02 0.34918047942E+02 0.59484574482E+02 0.11993097181E+03
 0.20854034828E+03 0.26908609374E+03 0.25643508122E+03 0.17926122008E+03 0.94470365694E+02
 0.46788795542E+02 0.28602346051E+02 0.20786813713E+02 0.17810817916E+02 0.18685793484E+02
 0.23463494442E+02 0.34108459129E+02 0.64513844606E+02 0.14955083533E+03 0.28792374609E+03
 0.39795445018E+03 0.41338412414E+03 0.32524868654E+03 0.18388968936E+03 0.81382325692E+02
 0.40687748114E+02 0.27607045385E+02 0.22581911127E+02 0.22111745284E+02 0.33340223421E+02
 0.53864575118E+02 0.12945722146E+03 0.30553983083E+03 0.50367141792E+03 0.60098962476E+03
 0.58364510400E+03 0.44454645018E+03 0.23380494200E+03 0.90477080703E+02 0.40474904845E+02
 0.26547182168E+02 0.21889455118E+02 0.22933332727E+02 0.29796184050E+02 0.49209728794E+02
 0.12509557273E+03 0.32563975313E+03 0.56800342157E+03 0.68376062511E+03 0.69463140591E+03
 0.61302207104E+03 0.38937211092E+03 0.16221769531E+03 0.60740387001E+02 0.34487167146E+02
 0.27291867716E+02 0.27083188859E+02 0.40907273329E+02 0.81906054451E+02 0.23847191091E+03
 0.52841683068E+03 0.71492683887E+03 0.72537612066E+03 0.73439693088E+03 0.67927707473E+03
 0.42140429041E+03 0.16007693804E+03 0.56053120949E+02 0.31942258667E+02 0.25519908611E+02
 0.26588542464E+02 0.35245328920E+02 0.65966970654E+02 0.19607815174E+03 0.48978149361E+03
 0.71710294180E+03 0.70930286820E+03 0.69662044171E+03 0.72811731904E+03 0.55975709309E+03
 0.25265630840E+03 0.83587356907E+02 0.40336347070E+02 0.31023736292E+02 0.31330587283E+02
 0.46273843072E+02 0.10532767636E+03 0.32096437448E+03 0.64256739407E+03 0.71734080511E+03
 0.60938239241E+03 0.64943663876E+03 0.73636692221E+03 0.53823214706E+03 0.21666858880E+03
 0.69221576201E+02 0.36057110000E+02 0.28373085911E+02 0.29263738973E+02 0.38535184778E+02
 0.74342756140E+02 0.22679571016E+03 0.54505193424E+03 0.73201467024E+03 0.65152162357E+03
 0.62696381870E+03 0.72174670406E+03 0.61151841359E+03 0.29014511529E+03 0.94107830116E+02
 0.43176575875E+02 0.33093129015E+02 0.33992133728E+02 0.57448697497E+02 0.16300426611E+03
 0.48878080682E+03 0.72977475522E+03 0.44134771513E+03 0.15855802327E+03 0.22215181819E+03
 0.58303440783E+03 0.69433069893E+03 0.34329061737E+03 0.10044674877E+03 0.43082588497E+02
 0.32569148202E+02 0.33311233270E+02 0.44784544509E+02 0.98356140607E+02 0.31872107676E+03
 0.66847286875E+03 0.66629224073E+03 0.39158744057E+03 0.35017316542E+03 0.60418094792E+03
 0.71729588072E+03 0.40325301111E+03 0.12761037617E+03 0.49700209225E+02 0.36466304616E+02
 0.38234027083E+02 0.51444335637E+02 0.12360548519E+03 0.37593362891E+03 0.69574520257E+03
 0.67517972173E+03 0.49485131108E+03 0.54619327086E+03 0.73033613036E+03 0.60577329520E+03
 0.25903728168E+03 0.81796633703E+02 0.42072880326E+02 0.33519614401E+02 0.33697552816E+02
 0.41730993257E+02 0.72314830088E+02 0.20384388366E+03 0.49847210798E+03 0.72272295190E+03
 0.71229688199E+03 0.69940657191E+03 0.73754857339E+03 0.57442179989E+03 0.26196669729E+03