   8   8   0   0
  0.1297788E+02  0.4700000E-09  0.4700000E-09  0.4700000E-09  0.1500000E-14
   1873.00000000000     
  CAR 
 Cu: benchmark                           
      8.10175431    -22.89463259  301     -5.35077208      1.00000000
    -22.895  0.0000E+00  0.0000E+00
    -22.791  0.0000E+00  0.0000E+00
    -22.688  0.0000E+00  0.0000E+00
    -22.585  0.0000E+00  0.0000E+00
    -22.481  0.0000E+00  0.0000E+00
    -22.378  0.0000E+00  0.0000E+00
    -22.275  0.0000E+00  0.0000E+00
    -22.171  0.0000E+00  0.0000E+00
    -22.068  0.0000E+00  0.0000E+00
    -21.965  0.0000E+00  0.0000E+00
    -21.861  0.0000E+00  0.0000E+00
    -21.758  0.0000E+00  0.0000E+00
    -21.655  0.0000E+00  0.0000E+00
    -21.551  0.0000E+00  0.0000E+00
    -21.448  0.0000E+00  0.0000E+00
    -21.345  0.0000E+00  0.0000E+00
    -21.241  0.0000E+00  0.0000E+00
    -21.138  0.0000E+00  0.0000E+00
    -21.035  0.0000E+00  0.0000E+00
    -20.932  0.0000E+00  0.0000E+00
    -20.828  0.0000E+00  0.0000E+00
    -20.725  0.0000E+00  0.0000E+00
    -20.622  0.0000E+00  0.0000E+00
    -20.518  0.0000E+00  0.0000E+00
    -20.415  0.0000E+00  0.0000E+00
    -20.312  0.0000E+00  0.0000E+00
    -20.208  0.0000E+00  0.0000E+00
    -20.105  0.0000E+00  0.0000E+00
    -20.002  0.0000E+00  0.0000E+00
    -19.898  0.0000E+00  0.0000E+00
    -19.795  0.0000E+00  0.0000E+00
    -19.692  0.0000E+00  0.0000E+00
    -19.588  0.1075E-14  0.1110E-15
    -19.485  0.3225E-14  0.4441E-15
    -19.382  0.1613E-13  0.2109E-14
    -19.278  0.6687E-13  0.9015E-14
    -19.175  0.2752E-12  0.3744E-13
    -19.072  0.1090E-11  0.1501E-12
    -18.968  0.4186E-11  0.5824E-12
    -18.865  0.1554E-10  0.2188E-11
    -18.762  0.5582E-10  0.7952E-11
    -18.658  0.1939E-09  0.2798E-10
    -18.555  0.6516E-09  0.9527E-10
    -18.452  0.2118E-08  0.3140E-09
    -18.348  0.6659E-08  0.1002E-08
    -18.245  0.2025E-07  0.3093E-08
    -18.142  0.5958E-07  0.9247E-08
    -18.039  0.1696E-06  0.2676E-07
    -17.935  0.4667E-06  0.7496E-07
    -17.832  0.1243E-05  0.2033E-06
    -17.729  0.3201E-05  0.5339E-06
    -17.625  0.7974E-05  0.1357E-05
    -17.522  0.1922E-04  0.3342E-05
    -17.419  0.4480E-04  0.7969E-05
    -17.315  0.1010E-03  0.1840E-04
    -17.212  0.2203E-03  0.4116E-04
    -17.109  0.4649E-03  0.8917E-04
    -17.005  0.9488E-03  0.1872E-03
    -16.902  0.1873E-02  0.3806E-03
    -16.799  0.3577E-02  0.7500E-03
    -16.695  0.6607E-02  0.1432E-02
    -16.592  0.1181E-01  0.2652E-02
    -16.489  0.2040E-01  0.4759E-02
    -16.385  0.3411E-01  0.8282E-02
    -16.282  0.5517E-01  0.1398E-01
    -16.179  0.8631E-01  0.2289E-01
    -16.075  0.1306E+00  0.3638E-01
    -15.972  0.1912E+00  0.5612E-01
    -15.869  0.2707E+00  0.8408E-01
    -15.765  0.3707E+00  0.1224E+00
    -15.662  0.4911E+00  0.1731E+00
    -15.559  0.6294E+00  0.2381E+00
    -15.455  0.7801E+00  0.3186E+00
    -15.352  0.9355E+00  0.4153E+00
    -15.249  0.1085E+01  0.5273E+00
    -15.146  0.1217E+01  0.6530E+00
    -15.042  0.1321E+01  0.7895E+00
    -14.939  0.1387E+01  0.9327E+00
    -14.836  0.1408E+01  0.1078E+01
    -14.732  0.1384E+01  0.1221E+01
    -14.629  0.1315E+01  0.1357E+01
    -14.526  0.1208E+01  0.1482E+01
    -14.422  0.1074E+01  0.1593E+01
    -14.319  0.9238E+00  0.1688E+01
    -14.216  0.7685E+00  0.1767E+01
    -14.112  0.6184E+00  0.1831E+01
    -14.009  0.4814E+00  0.1881E+01
    -13.906  0.3625E+00  0.1918E+01
    -13.802  0.2640E+00  0.1946E+01
    -13.699  0.1861E+00  0.1965E+01
    -13.596  0.1271E+00  0.1978E+01
    -13.492  0.8436E-01  0.1987E+01
    -13.389  0.5496E-01  0.1992E+01
    -13.286  0.3624E-01  0.1996E+01
    -13.182  0.2617E-01  0.1999E+01
    -13.079  0.2370E-01  0.2001E+01
    -12.976  0.2898E-01  0.2004E+01
    -12.872  0.4363E-01  0.2009E+01
    -12.769  0.7103E-01  0.2016E+01
    -12.666  0.1166E+00  0.2028E+01
    -12.563  0.1882E+00  0.2048E+01
    -12.459  0.2960E+00  0.2078E+01
    -12.356  0.4529E+00  0.2125E+01
    -12.253  0.6736E+00  0.2194E+01
    -12.149  0.9740E+00  0.2295E+01
    -12.046  0.1370E+01  0.2437E+01
    -11.943  0.1874E+01  0.2630E+01
    -11.839  0.2497E+01  0.2888E+01
    -11.736  0.3239E+01  0.3223E+01
    -11.633  0.4096E+01  0.3646E+01
    -11.529  0.5052E+01  0.4167E+01
    -11.426  0.6081E+01  0.4795E+01
    -11.323  0.7151E+01  0.5534E+01
    -11.219  0.8225E+01  0.6383E+01
    -11.116  0.9263E+01  0.7340E+01
    -11.013  0.1023E+02  0.8396E+01
    -10.909  0.1110E+02  0.9543E+01
    -10.806  0.1185E+02  0.1077E+02
    -10.703  0.1247E+02  0.1205E+02
    -10.599  0.1298E+02  0.1339E+02
    -10.496  0.1338E+02  0.1478E+02
    -10.393  0.1370E+02  0.1619E+02
    -10.289  0.1397E+02  0.1763E+02
    -10.186  0.1420E+02  0.1910E+02
    -10.083  0.1442E+02  0.2059E+02
     -9.979  0.1467E+02  0.2211E+02
     -9.876  0.1494E+02  0.2365E+02
     -9.773  0.1527E+02  0.2523E+02
     -9.670  0.1567E+02  0.2684E+02
     -9.566  0.1614E+02  0.2851E+02
     -9.463  0.1670E+02  0.3024E+02
     -9.360  0.1733E+02  0.3203E+02
     -9.256  0.1804E+02  0.3389E+02
     -9.153  0.1879E+02  0.3583E+02
     -9.050  0.1956E+02  0.3785E+02
     -8.946  0.2030E+02  0.3995E+02
     -8.843  0.2098E+02  0.4211E+02
     -8.740  0.2155E+02  0.4434E+02
     -8.636  0.2199E+02  0.4661E+02
     -8.533  0.2227E+02  0.4891E+02
     -8.430  0.2241E+02  0.5122E+02
     -8.326  0.2240E+02  0.5354E+02
     -8.223  0.2228E+02  0.5584E+02
     -8.120  0.2205E+02  0.5812E+02
     -8.016  0.2172E+02  0.6036E+02
     -7.913  0.2132E+02  0.6256E+02
     -7.810  0.2081E+02  0.6471E+02
     -7.706  0.2020E+02  0.6680E+02
     -7.603  0.1946E+02  0.6881E+02
     -7.500  0.1858E+02  0.7073E+02
     -7.396  0.1754E+02  0.7254E+02
     -7.293  0.1636E+02  0.7423E+02
     -7.190  0.1506E+02  0.7578E+02
     -7.086  0.1368E+02  0.7719E+02
     -6.983  0.1226E+02  0.7846E+02
     -6.880  0.1085E+02  0.7958E+02
     -6.777  0.9509E+01  0.8056E+02
     -6.673  0.8282E+01  0.8142E+02
     -6.570  0.7204E+01  0.8216E+02
     -6.467  0.6299E+01  0.8281E+02
     -6.363  0.5578E+01  0.8339E+02
     -6.260  0.5040E+01  0.8391E+02
     -6.157  0.4670E+01  0.8439E+02
     -6.053  0.4448E+01  0.8485E+02
     -5.950  0.4346E+01  0.8530E+02
     -5.847  0.4334E+01  0.8575E+02
     -5.743  0.4382E+01  0.8620E+02
     -5.640  0.4464E+01  0.8666E+02
     -5.537  0.4558E+01  0.8713E+02
     -5.433  0.4647E+01  0.8761E+02
     -5.330  0.4721E+01  0.8810E+02
     -5.227  0.4770E+01  0.8859E+02
     -5.123  0.4790E+01  0.8909E+02
     -5.020  0.4775E+01  0.8958E+02
     -4.917  0.4719E+01  0.9007E+02
     -4.813  0.4616E+01  0.9054E+02
     -4.710  0.4461E+01  0.9100E+02
     -4.607  0.4250E+01  0.9144E+02
     -4.503  0.3981E+01  0.9185E+02
     -4.400  0.3659E+01  0.9223E+02
     -4.297  0.3291E+01  0.9257E+02
     -4.193  0.2893E+01  0.9287E+02
     -4.090  0.2480E+01  0.9313E+02
     -3.987  0.2070E+01  0.9334E+02
     -3.884  0.1680E+01  0.9351E+02
     -3.780  0.1325E+01  0.9365E+02
     -3.677  0.1015E+01  0.9376E+02
     -3.574  0.7540E+00  0.9383E+02
     -3.470  0.5432E+00  0.9389E+02
     -3.367  0.3793E+00  0.9393E+02
     -3.264  0.2569E+00  0.9396E+02
     -3.160  0.1689E+00  0.9397E+02
     -3.057  0.1085E+00  0.9398E+02
     -2.954  0.6934E-01  0.9399E+02
     -2.850  0.4633E-01  0.9400E+02
     -2.747  0.3607E-01  0.9400E+02
     -2.644  0.3686E-01  0.9400E+02
     -2.540  0.4881E-01  0.9401E+02
     -2.437  0.7382E-01  0.9402E+02
     -2.334  0.1155E+00  0.9403E+02
     -2.230  0.1792E+00  0.9405E+02
     -2.127  0.2714E+00  0.9408E+02
     -2.024  0.3993E+00  0.9412E+02
     -1.920  0.5702E+00  0.9418E+02
     -1.817  0.7903E+00  0.9426E+02
     -1.714  0.1064E+01  0.9437E+02
     -1.610  0.1391E+01  0.9451E+02
     -1.507  0.1769E+01  0.9469E+02
     -1.404  0.2190E+01  0.9492E+02
     -1.300  0.2643E+01  0.9519E+02
     -1.197  0.3112E+01  0.9551E+02
     -1.094  0.3579E+01  0.9588E+02
     -0.991  0.4028E+01  0.9630E+02
     -0.887  0.4441E+01  0.9676E+02
     -0.784  0.4801E+01  0.9725E+02
     -0.681  0.5097E+01  0.9778E+02
     -0.577  0.5315E+01  0.9833E+02
     -0.474  0.5446E+01  0.9889E+02
     -0.371  0.5484E+01  0.9946E+02
     -0.267  0.5424E+01  0.1000E+03
     -0.164  0.5266E+01  0.1006E+03
     -0.061  0.5013E+01  0.1011E+03
      0.043  0.4675E+01  0.1016E+03
      0.146  0.4266E+01  0.1020E+03
      0.249  0.3804E+01  0.1024E+03
      0.353  0.3312E+01  0.1027E+03
      0.456  0.2813E+01  0.1030E+03
      0.559  0.2327E+01  0.1033E+03
      0.663  0.1875E+01  0.1035E+03
      0.766  0.1470E+01  0.1036E+03
      0.869  0.1121E+01  0.1037E+03
      0.973  0.8306E+00  0.1038E+03
      1.076  0.5980E+00  0.1039E+03
      1.179  0.4182E+00  0.1039E+03
      1.283  0.2839E+00  0.1040E+03
      1.386  0.1871E+00  0.1040E+03
      1.489  0.1196E+00  0.1040E+03
      1.593  0.7417E-01  0.1040E+03
      1.696  0.4461E-01  0.1040E+03
      1.799  0.2602E-01  0.1040E+03
      1.902  0.1471E-01  0.1040E+03
      2.006  0.8065E-02  0.1040E+03
      2.109  0.4284E-02  0.1040E+03
      2.212  0.2205E-02  0.1040E+03
      2.316  0.1099E-02  0.1040E+03
      2.419  0.5311E-03  0.1040E+03
      2.522  0.2485E-03  0.1040E+03
      2.626  0.1126E-03  0.1040E+03
      2.729  0.4941E-04  0.1040E+03
      2.832  0.2100E-04  0.1040E+03
      2.936  0.8637E-05  0.1040E+03
      3.039  0.3440E-05  0.1040E+03
      3.142  0.1326E-05  0.1040E+03
      3.246  0.4949E-06  0.1040E+03
      3.349  0.1788E-06  0.1040E+03
      3.452  0.6249E-07  0.1040E+03
      3.556  0.2114E-07  0.1040E+03
      3.659  0.6923E-08  0.1040E+03
      3.762  0.2193E-08  0.1040E+03
      3.866  0.6725E-09  0.1040E+03
      3.969  0.1995E-09  0.1040E+03
      4.072  0.5727E-10  0.1040E+03
      4.176  0.1591E-10  0.1040E+03
      4.279  0.4274E-11  0.1040E+03
      4.382  0.1113E-11  0.1040E+03
      4.486  0.2795E-12  0.1040E+03
      4.589  0.6579E-13  0.1040E+03
      4.692  0.1720E-13  0.1040E+03
      4.795  0.4300E-14  0.1040E+03
      4.899  0.0000E+00  0.1040E+03
      5.002  0.0000E+00  0.1040E+03
      5.105  0.0000E+00  0.1040E+03
      5.209  0.0000E+00  0.1040E+03
      5.312  0.0000E+00  0.1040E+03
      5.415  0.0000E+00  0.1040E+03
      5.519  0.0000E+00  0.1040E+03
      5.622  0.0000E+00  0.1040E+03
      5.725  0.0000E+00  0.1040E+03
      5.829  0.0000E+00  0.1040E+03
      5.932  0.0000E+00  0.1040E+03
      6.035  0.0000E+00  0.1040E+03
      6.139  0.0000E+00  0.1040E+03
      6.242  0.0000E+00  0.1040E+03
      6.345  0.0000E+00  0.1040E+03
      6.449  0.0000E+00  0.1040E+03
      6.552  0.0000E+00  0.1040E+03
      6.655  0.0000E+00  0.1040E+03
      6.759  0.0000E+00  0.1040E+03
      6.862  0.0000E+00  0.1040E+03
      6.965  0.0000E+00  0.1040E+03
      7.069  0.0000E+00  0.1040E+03
      7.172  0.0000E+00  0.1040E+03
      7.275  0.0000E+00  0.1040E+03
      7.379  0.0000E+00  0.1040E+03
      7.482  0.0000E+00  0.1040E+03
      7.585  0.0000E+00  0.1040E+03
      7.688  0.0000E+00  0.1040E+03
      7.792  0.0000E+00  0.1040E+03
      7.895  0.0000E+00  0.1040E+03
      7.998  0.0000E+00  0.1040E+03
      8.102  0.0000E+00  0.1040E+03
      8.11238156    -22.89362116  301     -5.35017738      1.00000000
    -22.894  0.0000E+00  0.0000E+00
    -22.790  0.0000E+00  0.0000E+00
    -22.687  0.0000E+00  0.0000E+00
    -22.584  0.0000E+00  0.0000E+00
    -22.480  0.0000E+00  0.0000E+00
    -22.377  0.0000E+00  0.0000E+00
    -22.274  0.0000E+00  0.0000E+00
    -22.170  0.0000E+00  0.0000E+00
    -22.067  0.0000E+00  0.0000E+00
    -21.963  0.0000E+00  0.0000E+00
    -21.860  0.0000E+00  0.0000E+00
    -21.757  0.0000E+00  0.0000E+00
    -21.653  0.0000E+00  0.0000E+00
    -21.550  0.0000E+00  0.0000E+00
    -21.447  0.0000E+00  0.0000E+00
    -21.343  0.0000E+00  0.0000E+00
    -21.240  0.0000E+00  0.0000E+00
    -21.137  0.0000E+00  0.0000E+00
    -21.033  0.0000E+00  0.0000E+00
    -20.930  0.0000E+00  0.0000E+00
    -20.827  0.0000E+00  0.0000E+00
    -20.723  0.0000E+00  0.0000E+00
    -20.620  0.0000E+00  0.0000E+00
    -20.516  0.0000E+00  0.0000E+00
    -20.413  0.0000E+00  0.0000E+00
    -20.310  0.0000E+00  0.0000E+00
    -20.206  0.0000E+00  0.0000E+00
    -20.103  0.0000E+00  0.0000E+00
    -20.000  0.0000E+00  0.0000E+00
    -19.896  0.0000E+00  0.0000E+00
    -19.793  0.0000E+00  0.0000E+00
    -19.690  0.0000E+00  0.0000E+00
    -19.586  0.2148E-15  0.2220E-16
    -19.483  0.6445E-15  0.8882E-16
    -19.380  0.3437E-14  0.4441E-15
    -19.276  0.1375E-13  0.1865E-14
    -19.173  0.5715E-13  0.7772E-14
    -19.070  0.2264E-12  0.3118E-13
    -18.966  0.8690E-12  0.1210E-12
    -18.863  0.3227E-11  0.4545E-12
    -18.759  0.1159E-10  0.1652E-11
    -18.656  0.4025E-10  0.5812E-11
    -18.553  0.1352E-09  0.1979E-10
    -18.449  0.4395E-09  0.6522E-10
    -18.346  0.1382E-08  0.2080E-09
    -18.243  0.4201E-08  0.6422E-09
    -18.139  0.1236E-07  0.1919E-08
    -18.036  0.3515E-07  0.5552E-08
    -17.933  0.9671E-07  0.1555E-07
    -17.829  0.2574E-06  0.4215E-07
    -17.726  0.6626E-06  0.1106E-06
    -17.623  0.1650E-05  0.2811E-06
    -17.519  0.3973E-05  0.6918E-06
    -17.416  0.9256E-05  0.1648E-05
    -17.313  0.2086E-04  0.3804E-05
    -17.209  0.4546E-04  0.8503E-05
    -17.106  0.9584E-04  0.1841E-04
    -17.002  0.1954E-03  0.3861E-04
    -16.899  0.3855E-03  0.7844E-04
    -16.796  0.7354E-03  0.1544E-03
    -16.692  0.1357E-02  0.2947E-03
    -16.589  0.2422E-02  0.5450E-03
    -16.486  0.4182E-02  0.9772E-03
    -16.382  0.6983E-02  0.1699E-02
    -16.279  0.1128E-01  0.2865E-02
    -16.176  0.1762E-01  0.4686E-02
    -16.072  0.2663E-01  0.7439E-02
    -15.969  0.3893E-01  0.1146E-01
    -15.866  0.5504E-01  0.1715E-01
    -15.762  0.7528E-01  0.2493E-01
    -15.659  0.9958E-01  0.3522E-01
    -15.556  0.1274E+00  0.4839E-01
    -15.452  0.1577E+00  0.6469E-01
    -15.349  0.1888E+00  0.8420E-01
    -15.245  0.2186E+00  0.1068E+00
    -15.142  0.2448E+00  0.1321E+00
    -15.039  0.2652E+00  0.1595E+00
    -14.935  0.2779E+00  0.1882E+00
    -14.832  0.2817E+00  0.2173E+00
    -14.729  0.2761E+00  0.2459E+00
    -14.625  0.2618E+00  0.2729E+00
    -14.522  0.2402E+00  0.2978E+00
    -14.419  0.2131E+00  0.3198E+00
    -14.315  0.1829E+00  0.3387E+00
    -14.212  0.1518E+00  0.3544E+00
    -14.109  0.1219E+00  0.3670E+00
    -14.005  0.9464E-01  0.3767E+00
    -13.902  0.7109E-01  0.3841E+00
    -13.799  0.5166E-01  0.3894E+00
    -13.695  0.3633E-01  0.3932E+00
    -13.592  0.2476E-01  0.3957E+00
    -13.488  0.1640E-01  0.3974E+00
    -13.385  0.1068E-01  0.3985E+00
    -13.282  0.7072E-02  0.3993E+00
    -13.178  0.5184E-02  0.3998E+00
    -13.075  0.4823E-02  0.4003E+00
    -12.972  0.6047E-02  0.4009E+00
    -12.868  0.9217E-02  0.4019E+00
    -12.765  0.1505E-01  0.4034E+00
    -12.662  0.2470E-01  0.4060E+00
    -12.558  0.3977E-01  0.4101E+00
    -12.455  0.6239E-01  0.4165E+00
    -12.352  0.9516E-01  0.4264E+00
    -12.248  0.1411E+00  0.4410E+00
    -12.145  0.2032E+00  0.4620E+00
    -12.042  0.2848E+00  0.4914E+00
    -11.938  0.3882E+00  0.5315E+00
    -11.835  0.5151E+00  0.5848E+00
    -11.731  0.6656E+00  0.6535E+00
    -11.628  0.8382E+00  0.7402E+00
    -11.525  0.1029E+01  0.8466E+00
    -11.421  0.1234E+01  0.9741E+00
    -11.318  0.1446E+01  0.1124E+01
    -11.215  0.1656E+01  0.1295E+01
    -11.111  0.1858E+01  0.1487E+01
    -11.008  0.2045E+01  0.1698E+01
    -10.905  0.2212E+01  0.1927E+01
    -10.801  0.2355E+01  0.2170E+01
    -10.698  0.2473E+01  0.2426E+01
    -10.595  0.2569E+01  0.2691E+01
    -10.491  0.2645E+01  0.2965E+01
    -10.388  0.2707E+01  0.3244E+01
    -10.285  0.2759E+01  0.3530E+01
    -10.181  0.2808E+01  0.3820E+01
    -10.078  0.2857E+01  0.4115E+01
     -9.974  0.2912E+01  0.4416E+01
     -9.871  0.2975E+01  0.4724E+01
     -9.768  0.3050E+01  0.5039E+01
     -9.664  0.3140E+01  0.5363E+01
     -9.561  0.3244E+01  0.5699E+01
     -9.458  0.3366E+01  0.6047E+01
     -9.354  0.3502E+01  0.6409E+01
     -9.251  0.3651E+01  0.6786E+01
     -9.148  0.3808E+01  0.7179E+01
     -9.044  0.3966E+01  0.7589E+01
     -8.941  0.4116E+01  0.8015E+01
     -8.838  0.4250E+01  0.8454E+01
     -8.734  0.4361E+01  0.8905E+01
     -8.631  0.4444E+01  0.9364E+01
     -8.528  0.4495E+01  0.9829E+01
     -8.424  0.4514E+01  0.1030E+02
     -8.321  0.4505E+01  0.1076E+02
     -8.217  0.4470E+01  0.1122E+02
     -8.114  0.4415E+01  0.1168E+02
     -8.011  0.4342E+01  0.1213E+02
     -7.907  0.4251E+01  0.1257E+02
     -7.804  0.4141E+01  0.1300E+02
     -7.701  0.4009E+01  0.1341E+02
     -7.597  0.3852E+01  0.1381E+02
     -7.494  0.3668E+01  0.1419E+02
     -7.391  0.3455E+01  0.1454E+02
     -7.287  0.3215E+01  0.1488E+02
     -7.184  0.2954E+01  0.1518E+02
     -7.081  0.2679E+01  0.1546E+02
     -6.977  0.2399E+01  0.1571E+02
     -6.874  0.2124E+01  0.1593E+02
     -6.770  0.1864E+01  0.1612E+02
     -6.667  0.1628E+01  0.1629E+02
     -6.564  0.1421E+01  0.1643E+02
     -6.460  0.1248E+01  0.1656E+02
     -6.357  0.1110E+01  0.1668E+02
     -6.254  0.1007E+01  0.1678E+02
     -6.150  0.9368E+00  0.1688E+02
     -6.047  0.8942E+00  0.1697E+02
     -5.944  0.8745E+00  0.1706E+02
     -5.840  0.8723E+00  0.1715E+02
     -5.737  0.8819E+00  0.1724E+02
     -5.634  0.8985E+00  0.1734E+02
     -5.530  0.9180E+00  0.1743E+02
     -5.427  0.9370E+00  0.1753E+02
     -5.324  0.9532E+00  0.1763E+02
     -5.220  0.9646E+00  0.1773E+02
     -5.117  0.9698E+00  0.1783E+02
     -5.013  0.9673E+00  0.1793E+02
     -4.910  0.9556E+00  0.1802E+02
     -4.807  0.9335E+00  0.1812E+02
     -4.703  0.8998E+00  0.1821E+02
     -4.600  0.8538E+00  0.1830E+02
     -4.497  0.7959E+00  0.1838E+02
     -4.393  0.7271E+00  0.1846E+02
     -4.290  0.6498E+00  0.1853E+02
     -4.187  0.5670E+00  0.1859E+02
     -4.083  0.4823E+00  0.1863E+02
     -3.980  0.3994E+00  0.1868E+02
     -3.877  0.3216E+00  0.1871E+02
     -3.773  0.2516E+00  0.1874E+02
     -3.670  0.1910E+00  0.1876E+02
     -3.567  0.1407E+00  0.1877E+02
     -3.463  0.1005E+00  0.1878E+02
     -3.360  0.6961E-01  0.1879E+02
     -3.256  0.4674E-01  0.1879E+02
     -3.153  0.3049E-01  0.1880E+02
     -3.050  0.1943E-01  0.1880E+02
     -2.946  0.1234E-01  0.1880E+02
     -2.843  0.8237E-02  0.1880E+02
     -2.740  0.6477E-02  0.1880E+02
     -2.636  0.6753E-02  0.1880E+02
     -2.533  0.9109E-02  0.1880E+02
     -2.430  0.1393E-01  0.1880E+02
     -2.326  0.2196E-01  0.1881E+02
     -2.223  0.3424E-01  0.1881E+02
     -2.120  0.5208E-01  0.1881E+02
     -2.016  0.7697E-01  0.1882E+02
     -1.913  0.1104E+00  0.1883E+02
     -1.810  0.1538E+00  0.1885E+02
     -1.706  0.2080E+00  0.1887E+02
     -1.603  0.2734E+00  0.1890E+02
     -1.499  0.3494E+00  0.1894E+02
     -1.396  0.4348E+00  0.1898E+02
     -1.293  0.5272E+00  0.1903E+02
     -1.189  0.6235E+00  0.1910E+02
     -1.086  0.7202E+00  0.1917E+02
     -0.983  0.8134E+00  0.1926E+02
     -0.879  0.8991E+00  0.1935E+02
     -0.776  0.9739E+00  0.1945E+02
     -0.673  0.1035E+01  0.1956E+02
     -0.569  0.1078E+01  0.1967E+02
     -0.466  0.1104E+01  0.1978E+02
     -0.363  0.1109E+01  0.1990E+02
     -0.259  0.1093E+01  0.2001E+02
     -0.156  0.1057E+01  0.2012E+02
     -0.053  0.1002E+01  0.2022E+02
      0.051  0.9308E+00  0.2032E+02
      0.154  0.8458E+00  0.2041E+02
      0.258  0.7514E+00  0.2049E+02
      0.361  0.6519E+00  0.2055E+02
      0.464  0.5520E+00  0.2061E+02
      0.568  0.4557E+00  0.2066E+02
      0.671  0.3665E+00  0.2069E+02
      0.774  0.2870E+00  0.2072E+02
      0.878  0.2187E+00  0.2075E+02
      0.981  0.1620E+00  0.2076E+02
      1.084  0.1167E+00  0.2078E+02
      1.188  0.8168E-01  0.2078E+02
      1.291  0.5552E-01  0.2079E+02
      1.394  0.3664E-01  0.2079E+02
      1.498  0.2347E-01  0.2080E+02
      1.601  0.1459E-01  0.2080E+02
      1.704  0.8795E-02  0.2080E+02
      1.808  0.5142E-02  0.2080E+02
      1.911  0.2915E-02  0.2080E+02
      2.015  0.1602E-02  0.2080E+02
      2.118  0.8530E-03  0.2080E+02
      2.221  0.4402E-03  0.2080E+02
      2.325  0.2200E-03  0.2080E+02
      2.428  0.1066E-03  0.2080E+02
      2.531  0.4998E-04  0.2080E+02
      2.635  0.2270E-04  0.2080E+02
      2.738  0.9984E-05  0.2080E+02
      2.841  0.4251E-05  0.2080E+02
      2.945  0.1752E-05  0.2080E+02
      3.048  0.6992E-06  0.2080E+02
      3.151  0.2700E-06  0.2080E+02
      3.255  0.1009E-06  0.2080E+02
      3.358  0.3652E-07  0.2080E+02
      3.461  0.1278E-07  0.2080E+02
      3.565  0.4331E-08  0.2080E+02
      3.668  0.1420E-08  0.2080E+02
      3.772  0.4504E-09  0.2080E+02
      3.875  0.1382E-09  0.2080E+02
      3.978  0.4104E-10  0.2080E+02
      4.082  0.1179E-10  0.2080E+02
      4.185  0.3278E-11  0.2080E+02
      4.288  0.8804E-12  0.2080E+02
      4.392  0.2294E-12  0.2080E+02
      4.495  0.5801E-13  0.2080E+02
      4.598  0.1375E-13  0.2080E+02
      4.702  0.3437E-14  0.2080E+02
      4.805  0.8594E-15  0.2080E+02
      4.908  0.0000E+00  0.2080E+02
      5.012  0.0000E+00  0.2080E+02
      5.115  0.0000E+00  0.2080E+02
      5.218  0.0000E+00  0.2080E+02
      5.322  0.0000E+00  0.2080E+02
      5.425  0.0000E+00  0.2080E+02
      5.529  0.0000E+00  0.2080E+02
      5.632  0.0000E+00  0.2080E+02
      5.735  0.0000E+00  0.2080E+02
      5.839  0.0000E+00  0.2080E+02
      5.942  0.0000E+00  0.2080E+02
      6.045  0.0000E+00  0.2080E+02
      6.149  0.0000E+00  0.2080E+02
      6.252  0.0000E+00  0.2080E+02
      6.355  0.0000E+00  0.2080E+02
      6.459  0.0000E+00  0.2080E+02
      6.562  0.0000E+00  0.2080E+02
      6.665  0.0000E+00  0.2080E+02
      6.769  0.0000E+00  0.2080E+02
      6.872  0.0000E+00  0.2080E+02
      6.975  0.0000E+00  0.2080E+02
      7.079  0.0000E+00  0.2080E+02
      7.182  0.0000E+00  0.2080E+02
      7.286  0.0000E+00  0.2080E+02
      7.389  0.0000E+00  0.2080E+02
      7.492  0.0000E+00  0.2080E+02
      7.596  0.0000E+00  0.2080E+02
      7.699  0.0000E+00  0.2080E+02
      7.802  0.0000E+00  0.2080E+02
      7.906  0.0000E+00  0.2080E+02
      8.009  0.0000E+00  0.2080E+02
      8.112  0.0000E+00  0.2080E+02
