    8    8    5    1
  0.1297788E+02  0.4700000E-09  0.4700000E-09  0.4700000E-09  0.1500000E-14
   1873.00000000000     
  CAR 
 Cu: benchmark                           
   88    1   52
 
  0.0000000E+00  0.0000000E+00  0.0000000E+00  0.1000000E+01
   1      -14.893621
   2      -11.310923
   3      -11.134352
   4      -11.002450
   5      -10.826017
   6      -10.800735
   7      -10.667972
   8      -10.492720
   9      -10.359072
  10      -10.144857
  11       -9.955184
  12       -9.872686
  13       -9.733600
  14       -9.636027
  15       -9.565905
  16       -9.359234
  17       -9.200805
  18       -9.072141
  19       -8.892897
  20       -8.816496
  21       -8.786547
  22       -8.767307
  23       -8.652311
  24       -8.624047
  25       -8.612672
  26       -8.555393
  27       -8.437107
  28       -8.355859
  29       -8.268292
  30       -8.175204
  31       -7.920648
  32       -7.803837
  33       -7.773615
  34       -7.712879
  35       -7.595953
  36       -7.570189
  37       -7.485679
  38       -7.430218
  39       -7.383337
  40       -7.280268
  41       -6.928884
  42       -6.720881
  43       -5.894320
  44       -5.549157
  45       -5.156912
  46       -4.614004
  47       -4.550786
  48       -0.991674
  49       -0.835941
  50       -0.331835
  51       -0.221792
  52        0.112382
