       N       E                     dE             d eps       ncg     rms          rms(c)
CG :   1     -.887890024318E+04    -.88789E+04    -.15545E+04    96    .914E+02 
CG :   2     -.901314946605E+04    -.13425E+03    -.10417E+03   128    .141E+02 
CG :   3     -.902887837984E+04    -.15729E+02    -.49247E+01   128    .305E+01     .669E+00
CG :   4     -.902294679661E+04     .59316E+01    -.28595E+01   104    .267E+01     .159E+00
CG :   5     -.902282720968E+04     .11959E+00    -.74733E-01   101    .372E+00     .516E-01
CG :   6     -.902279654441E+04     .30665E-01    -.79528E-02    99    .118E+00     .214E-01
CG :   7     -.902278656268E+04     .99817E-02    -.33305E-02    97    .706E-01     .631E-02
CG :   8     -.902278611989E+04     .44280E-03    -.13921E-03   100    .163E-01     .297E-02
CG :   9     -.902278589295E+04     .22693E-03    -.39696E-04    62    .788E-02     .998E-03
CG :  10     -.902278586555E+04     .27404E-04    -.97890E-05    53    .435E-02 
   1 T= 1873.0 E= -.90208490E+04 F= -.90227859E+04 E0= -.90220339E+04  EK=  .19368E+01 SP=  .00E+00 SK=  .00E+00 
       N       E                     dE             d eps       ncg     rms          rms(c)
CG :   1     -.902268034624E+04    -.90227E+04    -.33427E+00    96    .949E+00     .175E-01
CG :   2     -.902268283393E+04    -.24877E-02    -.30840E-02   103    .993E-01     .496E-02
CG :   3     -.902268265041E+04     .18352E-03    -.85850E-04    92    .144E-01     .206E-02
CG :   4     -.902268259445E+04     .55963E-04    -.11000E-04    49    .491E-02 
   2 T= 1773.4 E= -.90208487E+04 F= -.90226826E+04 E0= -.90219289E+04  EK=  .18339E+01 SP= -.22E-04 SK=  .12E-05 
       N       E                     dE             d eps       ncg     rms          rms(c)
CG :   1     -.902265009284E+04    -.90227E+04    -.25636E-01    96    .216E+00     .396E-01
CG :   2     -.902262063104E+04     .29462E-01    -.54632E-02    97    .906E-01     .138E-01
CG :   3     -.902261331474E+04     .73163E-02    -.22641E-02    97    .588E-01     .791E-02
CG :   4     -.902261184387E+04     .14709E-02    -.47887E-03    97    .279E-01     .297E-02
CG :   5     -.902261172567E+04     .11820E-03    -.27706E-04    60    .691E-02     .125E-02
CG :   6     -.902261167556E+04     .50113E-04    -.11855E-04    52    .472E-02 
   3 T= 1704.8 E= -.90208490E+04 F= -.90226117E+04 E0= -.90218558E+04  EK=  .17629E+01 SP= -.30E-03 SK=  .22E-04 
       N       E                     dE             d eps       ncg     rms          rms(c)
CG :   1     -.902257551547E+04    -.90226E+04    -.28774E-03   113    .220E-01     .607E-02
CG :   2     -.902257544747E+04     .67998E-04    -.66413E-04    80    .119E-01 
   4 T= 1670.4 E= -.90208490E+04 F= -.90225754E+04 E0= -.90218176E+04  EK=  .17273E+01 SP= -.10E-02 SK=  .94E-04 
       N       E                     dE             d eps       ncg     rms          rms(c)
CG :   1     -.902257559542E+04    -.90226E+04    -.50234E-03   110    .284E-01     .719E-02
CG :   2     -.902257546221E+04     .13322E-03    -.92104E-04    88    .133E-01     .222E-02
CG :   3     -.902257540753E+04     .54677E-04    -.13804E-04    49    .571E-02 
   5 T= 1671.4 E= -.90208490E+04 F= -.90225754E+04 E0= -.90218145E+04  EK=  .17284E+01 SP= -.22E-02 SK=  .23E-03 
