       N       E                     dE             d eps       ncg     rms          rms(c)
CG :   1     -.887890024318E+04    -.88789E+04    -.15545E+04    96    .914E+02 
CG :   2     -.901314946605E+04    -.13425E+03    -.10417E+03   128    .141E+02 
CG :   3     -.902887837984E+04    -.15729E+02    -.49247E+01   128    .305E+01     .669E+00
CG :   4     -.902294679661E+04     .59316E+01    -.28595E+01   104    .267E+01     .159E+00
CG :   5     -.902282720968E+04     .11959E+00    -.74733E-01   101    .372E+00     .516E-01
CG :   6     -.902279654441E+04     .30665E-01    -.79528E-02    99    .118E+00     .214E-01
CG :   7     -.902278656268E+04     .99817E-02    -.33305E-02    97    .706E-01     .631E-02
CG :   8     -.902278611989E+04     .44280E-03    -.13921E-03   100    .163E-01     .297E-02
CG :   9     -.902278589295E+04     .22694E-03    -.39696E-04    62    .788E-02     .998E-03
CG :  10     -.902278586555E+04     .27404E-04    -.97890E-05    53    .435E-02 
   1 T= 1819.8 E= -.90209040E+04 F= -.90227859E+04 E0= -.90220339E+04  EK=  .18819E+01 SP=  .00E+00 SK=  .50E-06 
       N       E                     dE             d eps       ncg     rms          rms(c)
CG :   1     -.902269703619E+04    -.90227E+04    -.32547E+00    96    .935E+00     .174E-01
CG :   2     -.902269944968E+04    -.24135E-02    -.30141E-02   103    .980E-01     .494E-02
CG :   3     -.902269926629E+04     .18339E-03    -.85986E-04    92    .144E-01     .207E-02
CG :   4     -.902269921001E+04     .56274E-04    -.10967E-04    49    .487E-02 
   2 T= 1736.3 E= -.90209039E+04 F= -.90226992E+04 E0= -.90219456E+04  EK=  .17955E+01 SP= -.14E-03 SK=  .10E-04 
       N       E                     dE             d eps       ncg     rms          rms(c)
CG :   1     -.902268444896E+04    -.90227E+04    -.25984E-01    96    .217E+00     .397E-01
CG :   2     -.902265440985E+04     .30039E-01    -.55563E-02    97    .912E-01     .139E-01
CG :   3     -.902264686802E+04     .75418E-02    -.23474E-02    97    .597E-01     .794E-02
CG :   4     -.902264538641E+04     .14816E-02    -.48303E-03    97    .280E-01     .299E-02
CG :   5     -.902264526687E+04     .11954E-03    -.27712E-04    60    .691E-02     .126E-02
CG :   6     -.902264521605E+04     .50822E-04    -.11945E-04    52    .474E-02 
   3 T= 1684.6 E= -.90209038E+04 F= -.90226452E+04 E0= -.90218894E+04  EK=  .17420E+01 SP= -.64E-03 SK=  .57E-04 
       N       E                     dE             d eps       ncg     rms          rms(c)
CG :   1     -.902262598339E+04    -.90226E+04    -.28063E-03   113    .220E-01     .607E-02
CG :   2     -.902262590341E+04     .79979E-04    -.67622E-04    81    .119E-01 
   4 T= 1666.8 E= -.90209038E+04 F= -.90226259E+04 E0= -.90218683E+04  EK=  .17236E+01 SP= -.16E-02 SK=  .16E-03 
       N       E                     dE             d eps       ncg     rms          rms(c)
CG :   1     -.902264224091E+04    -.90226E+04    -.50840E-03   111    .286E-01     .729E-02
CG :   2     -.902264209814E+04     .14277E-03    -.10002E-03    92    .137E-01     .228E-02
CG :   3     -.902264203944E+04     .58703E-04    -.14431E-04    49    .569E-02 
   5 T= 1683.6 E= -.90209039E+04 F= -.90226420E+04 E0= -.90218814E+04  EK=  .17410E+01 SP= -.32E-02 SK=  .32E-03 
