       N       E                     dE             d eps       ncg     rms          rms(c)
DAV:   1    -0.883496761046E+04   -0.88350E+04   -0.15912E+04   104   0.984E+02
DAV:   2    -0.901521306743E+04   -0.18025E+03   -0.16893E+03   104   0.189E+02
DAV:   3    -0.902981550236E+04   -0.14602E+02   -0.14413E+02   120   0.572E+01
DAV:   4    -0.903001830564E+04   -0.20280E+00   -0.20238E+00   120   0.696E+00
DAV:   5    -0.903001994173E+04   -0.16361E-02   -0.16359E-02   116   0.649E-01    0.174E+01
DAV:   6    -0.902306635043E+04    0.69536E+01   -0.22351E+01   104   0.395E+01    0.401E+00
DAV:   7    -0.902307593859E+04   -0.95882E-02   -0.20949E+00   112   0.203E+01    0.184E+00
DAV:   8    -0.902304231291E+04    0.33626E-01   -0.22531E-01   112   0.804E+00    0.651E-01
DAV:   9    -0.902303528089E+04    0.70320E-02   -0.74226E-02   120   0.175E+00    0.220E-01
DAV:  10    -0.902303526745E+04    0.13438E-04   -0.10045E-02   108   0.117E+00    0.118E-01
DAV:  11    -0.902303491510E+04    0.35235E-03   -0.11355E-03   120   0.621E-01    0.548E-02
DAV:  12    -0.902303487032E+04    0.44783E-04   -0.60933E-04   108   0.200E-01
   1 T=  2076. E= -.90211561E+04 F= -.90230349E+04 E0= -.90222803E+04  EK= 0.18788E+01 SP= 0.00E+00 SK= 0.55E-05
       N       E                     dE             d eps       ncg     rms          rms(c)
DAV:   1    -0.902293988972E+04    0.95025E-01   -0.32007E+00   104   0.866E+00    0.455E-01
DAV:   2    -0.902294259693E+04   -0.27072E-02   -0.26336E-02   120   0.987E-01    0.131E-01
DAV:   3    -0.902294242799E+04    0.16894E-03   -0.12016E-03   112   0.490E-01    0.583E-02
DAV:   4    -0.902294237717E+04    0.50821E-04   -0.26230E-04    72   0.245E-01
   2 T=  1974. E= -.90211560E+04 F= -.90229424E+04 E0= -.90221865E+04  EK= 0.17859E+01 SP= 0.41E-03 SK= 0.35E-04
       N       E                     dE             d eps       ncg     rms          rms(c)
DAV:   1    -0.902288208376E+04    0.60344E-01   -0.40984E-02   104   0.167E+00    0.802E-02
DAV:   2    -0.902288263990E+04   -0.55613E-03   -0.49353E-03   104   0.392E-01    0.231E-02
DAV:   3    -0.902288264060E+04   -0.70452E-06   -0.44993E-05    64   0.953E-02
   3 T=  1907. E= -.90211560E+04 F= -.90228826E+04 E0= -.90221247E+04  EK= 0.17255E+01 SP= 0.10E-02 SK= 0.55E-04
       N       E                     dE             d eps       ncg     rms          rms(c)
DAV:   1    -0.902285804846E+04    0.24591E-01   -0.84758E-03    96   0.135E+00    0.287E-02
DAV:   2    -0.902285812718E+04   -0.78725E-04   -0.73725E-04   104   0.157E-01
   4 T=  1879. E= -.90211559E+04 F= -.90228581E+04 E0= -.90220980E+04  EK= 0.17005E+01 SP= 0.17E-02 SK= 0.63E-04
       N       E                     dE             d eps       ncg     rms          rms(c)
DAV:   1    -0.902287018006E+04   -0.12132E-01   -0.79144E-03    64   0.132E+00    0.332E-02
DAV:   2    -0.902287026353E+04   -0.83474E-04   -0.54018E-04   112   0.140E-01
   5 T=  1892. E= -.90211558E+04 F= -.90228703E+04 E0= -.90221072E+04  EK= 0.17120E+01 SP= 0.24E-02 SK= 0.67E-04
