 vasp.4.6.12  27Jun03 complex 
 executed on                   HP date 2003.11.21  14:03:41
 serial version
     

--------------------------------------------------------------------------------------------------------


 INCAR:
 POTCAR:   Cu: VAN0  d=2.0, optimized             
 POTCAR:   Cu: VAN0  d=2.0, optimized             
   VRHFIN =Cu: d10 p1                                                           
   LEXCH  = CA                                                                  
   EATOM  =  0000.0000 eV,  000.0000 Ry                                         
   GGA    =     0.0000    0.0000    0.0000    0.0000 eV                         
                                                                                
   TITEL  = US Cu                                                               
   LULTRA =        T    use ultrasoft PP ?                                      
   IUNSCR =        1    unscreen: 0-lin 1-nonlin 2-no                           
   RPACOR =     .980    partial core radius                                     
   POMASS =   63.546; ZVAL   =   11.000    mass and valenz                      
   RCORE  =    2.480    outmost cutoff radius                                   
   RWIGS  =    2.480; RWIGS  =    1.312    wigner-seitz radius (au A)           
   ENMAX  =  233.781; ENMIN  =  175.336 eV                                      
   EAUG   =  391.465                                                            
                                                                                
   RCLOC  =    1.712    cutoff for local pot                                    
   LCOR   =        T    correct aug charges                                     
   RMAX   =    3.016    core radius for proj-oper                               
   QCUT   =   -4.145; QGAM   =    8.290    optimization parameters              
                                                                                
   Description                                                                  
     l     E      TYP  RCUT    TYP  RCUT                                        
     2   .000      7  2.010    23  2.480                                        
     2   .000      7  2.010    23  2.480                                        
     0   .000     15  2.210    23  2.210                                        
     0   .000     15  2.210    23  2.210                                        
     1  -.200     15  2.210    23  2.480                                        
     1   .000     15  2.210    23  2.480                                        
     3   .000      7   .000     0   .000                                        
END of PSCTR-controll parameters                                                
  local pseudopotential read in
  atomic valenz-charges read in
  non local Contribution for L= 2  read in
    real space projection operators read in
  non local Contribution for L= 2  read in
    real space projection operators read in
  non local Contribution for L= 1  read in
    real space projection operators read in
    augmentation charges read in

   number of l-projection  operators is LMAX  = 3
   number of lm-projection operators is LMMAX = 13

 Cu: VAN0  d=2.0, optimized             :
 energy of atom  1       EATOM=   -0.0000

 EXHCAR: internal setup
 exchange correlation table for  LEXCH =        2
   RHO(1)=    0.500       N(1)  =     2000
   RHO(2)=  100.500       N(2)  =     4000

 POSCAR: Cu: Test                                
  positions in direct lattice
  velocities in cartesian coordinates

 ----------------------------------------------------------------------------- 
|                                                                             |
|           W    W    AA    RRRRR   N    N  II  N    N   GGGG   !!!           |
|           W    W   A  A   R    R  NN   N  II  NN   N  G    G  !!!           |
|           W    W  A    A  R    R  N N  N  II  N N  N  G       !!!           |
|           W WW W  AAAAAA  RRRRR   N  N N  II  N  N N  G  GGG   !            |
|           WW  WW  A    A  R   R   N   NN  II  N   NN  G    G                |
|           W    W  A    A  R    R  N    N  II  N    N   GGGG   !!!           |
|                                                                             |
|      VASP found     21 degrees of freedom                                   |
|      the temperature will equal 2*E(kin)/ (degrees of freedom)              |
|      this differs from previous releases, where T was 2*E(kin)/(3 NIONS).   |
|      The new definition is more consistent                                  |
|                                                                             |
 ----------------------------------------------------------------------------- 


     

--------------------------------------------------------------------------------------------------------


 ion  position               nearest neighbor table
   1  0.191  0.981  0.119-   5 2.11   4 2.29   2 2.32   8 2.33   7 2.33   4 2.41   3 2.51   6 2.73
                             6 2.77   7 2.91
   2  0.904  0.311  0.349-   4 2.20   3 2.21   5 2.31   1 2.32   6 2.32   5 2.39   3 2.50   6 3.06
                          
   3  0.934  0.339  0.818-   2 2.21   6 2.26   8 2.34   8 2.37   4 2.49   2 2.50   1 2.51   6 2.80
                             5 3.08
   4  0.704  0.961  0.110-   2 2.20   1 2.29   1 2.41   8 2.44   5 2.46   6 2.48   3 2.49   7 2.54
                             6 2.60   7 3.01
   5  0.395  0.305  0.353-   1 2.11   8 2.25   7 2.27   2 2.31   2 2.39   4 2.46   8 2.46   7 2.79
                             3 3.08
   6  0.898  0.901  0.624-   3 2.26   2 2.32   7 2.35   7 2.41   4 2.48   4 2.60   1 2.73   1 2.77
                             3 2.80   2 3.06   8 3.06
   7  0.405  0.865  0.551-   5 2.27   1 2.33   6 2.35   6 2.41   8 2.45   4 2.54   5 2.79   1 2.91
                             8 2.95   4 3.01
   8  0.430  0.304  0.830-   5 2.25   1 2.33   3 2.34   3 2.37   4 2.44   7 2.45   5 2.46   7 2.95
                             6 3.06


IMPORTANT INFORMATION: All symmetrisations will be switched off!
NOSYMM: (Re-)initialisation of all symmetry stuff for point group C_1.



 KPOINTS: Automatic mesh                          

Automatic generation of k-mesh.
 
 Subroutine IBZKPT returns following result:
 ===========================================
 
 Found      1 irreducible k-points:
 
 Following reciprocal coordinates:
            Coordinates               Weight
  0.000000  0.000000  0.000000      1.000000
 
 Following cartesian coordinates:
            Coordinates               Weight
  0.000000  0.000000  0.000000      1.000000
 
