<?xml version="1.0" encoding="ISO-8859-1"?>
<modeling>
 <generator>
  <i name="program" type="string">vasp </i>
  <i name="version" type="string">5.2.2  </i>
  <i name="subversion" type="string">15Apr09 complex  parallel </i>
  <i name="platform" type="string">LinuxIFC </i>
  <i name="date" type="string">2009 06 27 </i>
  <i name="time" type="string">15:42:45 </i>
 </generator>
 <incar>
  <i type="string" name="SYSTEM">  Cu: benchmark</i>
  <i type="int" name="ISTART">     0</i>
  <i type="string" name="PREC">normal</i>
  <i type="int" name="IALGO">    38</i>
  <i type="logical" name="LDIAG"> T  </i>
  <i name="BMIX">      3.00000000</i>
  <i type="int" name="NELM">    20</i>
  <i type="int" name="IBRION">     0</i>
  <i name="EDIFF">      0.00010000</i>
  <i type="int" name="NSW">     5</i>
  <i type="int" name="ISIF">     0</i>
  <i type="int" name="IWAVPR">    12</i>
  <i type="int" name="ISYM">     0</i>
  <i type="int" name="NBLOCK">     1</i>
  <i type="int" name="KBLOCK">     5</i>
  <i name="ENMAX">    150.00000000</i>
  <i name="POTIM">      1.50000000</i>
  <i name="TEBEG">   1873.00000000</i>
  <i name="TEEND">   1873.00000000</i>
  <i name="SMASS">      3.00000000</i>
  <v name="POMASS">     63.55000000</v>
  <i type="logical" name="LREAL"> F  </i>
  <i type="int" name="ISMEAR">     0</i>
  <i name="SIGMA">      0.80000000</i>
  <i type="int" name="NWRITE">     2</i>
  <i type="logical" name="LCORR"> T  </i>
  <i type="int" name="NELM">    20</i>
  <i type="logical" name="LPEAD"> F  </i>
  <i type="logical" name="LCALCPOL"> F  </i>
  <i type="logical" name="LCALCEPS"> F  </i>
  <v name="EFIELD_PEAD">      0.00000000      0.00000000      0.00000000</v>
  <i type="logical" name="LEFG"> F  </i>
 </incar>
 <kpoints>
  <generation param="Monkhorst-Pack">
   <v type="int" name="divisions">       1        1        1 </v>
   <v name="usershift">      0.00000000       0.00000000       0.00000000 </v>
   <v name="genvec1">      1.00000000       0.00000000       0.00000000 </v>
   <v name="genvec2">      0.00000000       1.00000000       0.00000000 </v>
   <v name="genvec3">      0.00000000       0.00000000       1.00000000 </v>
   <v name="shift">      0.00000000       0.00000000       0.00000000 </v>
  </generation>
  <varray name="kpointlist" >
   <v>       0.00000000       0.00000000       0.00000000 </v>
  </varray>
  <varray name="weights" >
   <v>       1.00000000 </v>
  </varray>
 </kpoints>
 <parameters>
  <separator name="general" >
   <i type="string" name="SYSTEM">Cu: benchmark</i>
   <i type="logical" name="LCOMPAT"> F  </i>
  </separator>
  <separator name="electronic" >
   <i type="string" name="PREC">normal</i>
   <i name="ENMAX">    150.00000000</i>
   <i name="ENAUG">    391.46500000</i>
   <i name="EDIFF">      0.00010000</i>
   <i type="int" name="IALGO">    38</i>
   <i type="int" name="IWAVPR">    12</i>
   <i type="int" name="NBANDS">    52</i>
   <i name="NELECT">     88.00000000</i>
   <separator name="electronic smearing" >
    <i type="int" name="ISMEAR">     0</i>
    <i name="SIGMA">      0.80000000</i>
   </separator>
   <separator name="electronic projectors" >
    <i type="logical" name="LREAL"> F  </i>
    <v name="ROPT">      0.00000000</v>
    <i type="int" name="LMAXPAW">  -100</i>
    <i type="int" name="LMAXMIX">     2</i>
   </separator>
   <separator name="electronic startup" >
    <i type="int" name="ISTART">     0</i>
    <i type="int" name="ICHARG">     2</i>
    <i type="int" name="INIWAV">     1</i>
   </separator>
   <separator name="electronic spin" >
    <i type="int" name="ISPIN">     1</i>
    <i type="logical" name="LNONCOLLINEAR"> F  </i>
    <v name="MAGMOM">      1.00000000      1.00000000      1.00000000      1.00000000      1.00000000      1.00000000      1.00000000      1.00000000</v>
    <i name="NUPDOWN">     -1.00000000</i>
    <i type="logical" name="LSORBIT"> F  </i>
    <v name="SAXIS">      0.00000000      0.00000000      1.00000000</v>
    <i type="logical" name="LSPIRAL"> F  </i>
    <v name="QSPIRAL">      0.00000000      0.00000000      0.00000000</v>
    <i type="logical" name="LZEROZ"> F  </i>
   </separator>
   <separator name="electronic exchange-correlation" >
    <i type="logical" name="LASPH"> F  </i>
    <i type="logical" name="LMETAGGA"> F  </i>
   </separator>
   <separator name="electronic convergence" >
    <i type="int" name="NELM">    20</i>
    <i type="int" name="NELMDL">    -5</i>
    <i type="int" name="NELMIN">     2</i>
    <i name="ENINI">    150.00000000</i>
    <separator name="electronic convergence detail" >
     <i type="logical" name="LDIAG"> T  </i>
     <i name="WEIMIN">      0.00100000</i>
     <i name="EBREAK">      0.00000048</i>
     <i name="DEPER">      0.30000000</i>
     <i type="int" name="NRMM">     4</i>
     <i name="TIME">      0.40000000</i>
    </separator>
   </separator>
   <separator name="electronic mixer" >
    <i name="AMIX">      0.80000000</i>
    <i name="BMIX">      3.00000000</i>
    <i name="AMIN">      0.10000000</i>
    <i name="AMIX_MAG">      3.20000000</i>
    <i name="BMIX_MAG">      3.00000000</i>
    <separator name="electronic mixer details" >
     <i type="int" name="IMIX">     4</i>
     <i type="int" name="MAXMIX">   -45</i>
     <i name="WC">    100.00000000</i>
     <i type="int" name="INIMIX">     1</i>
     <i type="int" name="MIXPRE">     1</i>
     <i type="int" name="MREMOVE">     5</i>
    </separator>
   </separator>
   <separator name="electronic dipolcorrection" >
    <i type="logical" name="LDIPOL"> F  </i>
    <i type="logical" name="LMONO"> F  </i>
    <i type="int" name="IDIPOL">     0</i>
    <i name="EPSILON">      1.00000000</i>
    <v name="DIPOL">   -100.00000000   -100.00000000   -100.00000000</v>
    <i name="EFIELD">      0.00000000</i>
   </separator>
  </separator>
  <separator name="grids" >
   <i type="int" name="NGX">    14</i>
   <i type="int" name="NGY">    14</i>
   <i type="int" name="NGZ">    14</i>
   <i type="int" name="NGXF">    28</i>
   <i type="int" name="NGYF">    28</i>
   <i type="int" name="NGZF">    28</i>
   <i type="logical" name="ADDGRID"> F  </i>
  </separator>
  <separator name="ionic" >
   <i type="int" name="NSW">     5</i>
   <i type="int" name="IBRION">     0</i>
   <i type="int" name="ISIF">     0</i>
   <i name="PSTRESS">      0.00000000</i>
   <i name="EDIFFG">      0.00100000</i>
   <i type="int" name="NFREE">     0</i>
   <i name="POTIM">      1.50000000</i>
   <i name="SMASS">      3.00000000</i>
  </separator>
  <separator name="ionic md" >
   <i name="TEBEG">   1873.00000000</i>
   <i name="TEEND">   1873.00000000</i>
   <i type="int" name="NBLOCK">     1</i>
   <i type="int" name="KBLOCK">     5</i>
   <i type="int" name="NPACO">   256</i>
   <i name="APACO">     16.00000000</i>
  </separator>
  <separator name="symmetry" >
   <i type="int" name="ISYM">     0</i>
   <i name="SYMPREC">      0.00001000</i>
  </separator>
  <separator name="dos" >
   <i type="logical" name="LORBIT"> F  </i>
   <v name="RWIGS">     -1.00000000</v>
   <i type="int" name="NEDOS">   301</i>
   <i name="EMIN">     10.00000000</i>
   <i name="EMAX">    -10.00000000</i>
   <i name="EFERMI">      0.00000000</i>
  </separator>
  <separator name="writing" >
   <i type="int" name="NWRITE">     2</i>
   <i type="logical" name="LWAVE"> T  </i>
   <i type="logical" name="LCHARG"> T  </i>
   <i type="logical" name="LPARD"> F  </i>
   <i type="logical" name="LVTOT"> F  </i>
   <i type="logical" name="LELF"> F  </i>
   <i type="logical" name="LOPTICS"> F  </i>
   <v name="STM">      0.00000000      0.00000000      0.00000000      0.00000000      0.00000000</v>
  </separator>
  <separator name="performance" >
   <i type="int" name="NPAR">     2</i>
   <i type="int" name="NSIM">     4</i>
   <i type="int" name="NBLK">    32</i>
   <i type="logical" name="LPLANE"> T  </i>
   <i type="logical" name="LSCALAPACK"> F  </i>
   <i type="logical" name="LSCAAWARE"> F  </i>
   <i type="logical" name="LSCALU"> F  </i>
   <i type="logical" name="LASYNC"> F  </i>
  </separator>
  <separator name="miscellaneous" >
   <i type="int" name="IDIOT">     3</i>
   <i type="logical" name="LMUSIC"> F  </i>
   <v name="POMASS">     63.55000000</v>
   <i type="logical" name="LCORR"> T  </i>
  </separator>
  <i type="logical" name="LREAL_COMPAT"> F  </i>
  <i type="logical" name="GGA_COMPAT"> T  </i>
  <i type="logical" name="LBERRY"> F  </i>
  <i type="int" name="ICORELEVEL">     0</i>
  <i type="logical" name="LDAU"> F  </i>
  <i type="int" name="I_CONSTRAINED_M">     0</i>
  <separator name="electronic exchange-correlation" >
   <i type="string" name="GGA">--</i>
   <i type="int" name="VOSKOWN">     0</i>
   <i type="logical" name="LHFCALC"> F  </i>
   <i type="logical" name="LHFONE"> F  </i>
   <i type="logical" name="LRHFCALC"> F  </i>
   <i type="logical" name="LTHOMAS"> F  </i>
   <i type="logical" name="LMODELHF"> F  </i>
   <i name="ENCUTFOCK">      0.00000000</i>
   <i name="ENCUT4O">     -1.00000000</i>
   <i type="int" name="EXXOEP">     0</i>
   <i type="int" name="FOURORBIT">     0</i>
   <i name="AEXX">      0.00000000</i>
   <i name="HFALPHA">      0.00000000</i>
   <i name="ALDAX">      1.00000000</i>
   <i name="AGGAX">      1.00000000</i>
   <i name="ALDAC">      1.00000000</i>
   <i name="AGGAC">      1.00000000</i>
   <i type="int" name="NKREDX">     1</i>
   <i type="int" name="NKREDY">     1</i>
   <i type="int" name="NKREDZ">     1</i>
   <i type="logical" name="SHIFTRED"> F  </i>
   <i type="logical" name="ODDONLY"> F  </i>
   <i type="logical" name="EVENONLY"> F  </i>
   <i type="int" name="LMAXFOCK">     0</i>
   <i type="int" name="NMAXFOCKAE">     0</i>
   <i name="HFSCREEN">      0.00000000</i>
   <i name="HFSCREENC">      0.00000000</i>
  </separator>
  <separator name="model GW" >
   <i type="int" name="MODEL_GW">     0</i>
   <i name="MODEL_EPS0">      7.78672500</i>
   <i name="MODEL_ALPHA">      1.00000000</i>
  </separator>
  <separator name="linear response parameters" >
   <i type="logical" name="LEPSILON"> F  </i>
   <i type="logical" name="LRPA"> F  </i>
   <i type="logical" name="LNABLA"> F  </i>
   <i type="logical" name="LVEL"> F  </i>
   <i type="int" name="KINTER">     0</i>
   <i name="CSHIFT">      0.10000000</i>
   <i name="OMEGAMAX">     -1.00000000</i>
  </separator>
  <separator name="orbital magnetization" >
   <i type="logical" name="ORBITALMAG"> F  </i>
   <i type="logical" name="LMAGBLOCH"> F  </i>
   <i type="logical" name="LCHIMAG"> F  </i>
   <i type="logical" name="LGAUGE"> T  </i>
   <i type="int" name="MAGATOM">     0</i>
   <v name="MAGDIPOL">      0.00000000      0.00000000      0.00000000</v>
   <v name="AVECCONST">      0.00000000      0.00000000      0.00000000</v>
  </separator>
  <separator name="response functions" >
   <i type="logical" name="LRPA"> T  </i>
   <i type="logical" name="LTCTE"> F  </i>
   <i type="logical" name="LTETE"> F  </i>
   <i type="logical" name="L2ORDER"> F  </i>
   <i type="logical" name="LGWLF"> F  </i>
   <i name="ENCUTGW">    100.00000000</i>
   <i name="ENCUTGWSOFT">     -2.00000000</i>
   <i name="ENCUTLF">     -1.00000000</i>
   <i type="int" name="LMAXMP2">    -1</i>
   <i name="SCISSOR">      0.00000000</i>
   <i type="int" name="NOMEGA">     0</i>
   <i type="int" name="NOMEGAR">     0</i>
   <i type="int" name="NBANDSGW">    -1</i>
   <i type="int" name="NBANDSLF">    -1</i>
   <i type="int" name="NELM">    20</i>
   <i type="int" name="DIM">     3</i>
   <i type="int" name="ANTIRES">     0</i>
   <i type="logical" name="LUSEW"> F  </i>
   <i name="OMEGAMAX">    -30.00000000</i>
   <i name="OMEGATL">   -200.00000000</i>
   <i type="int" name="OMEGAGRID">     0</i>
   <i name="CSHIFT">     -0.10000000</i>
   <i type="logical" name="SELFENERGY"> F  </i>
   <i type="logical" name="LSPECTRAL"> F  </i>
   <i type="logical" name="ODDONLYGW"> F  </i>
   <i type="logical" name="EVENONLYGW"> F  </i>
   <i type="int" name="NKREDLFX">     1</i>
   <i type="int" name="NKREDLFY">     1</i>
   <i type="int" name="NKREDLFZ">     1</i>
   <i type="int" name="MAXMEM">  1024</i>
   <i type="int" name="TELESCOPE">     0</i>
  </separator>
 </parameters>
 <atominfo>
  <atoms>       8 </atoms>
  <types>       1 </types>
  <array name="atoms" >
   <dimension dim="1">ion</dimension>
   <field type="string">element</field>
   <field type="int">atomtype</field>
   <set>
    <rc><c>Cu</c><c>   1</c></rc>
    <rc><c>Cu</c><c>   1</c></rc>
    <rc><c>Cu</c><c>   1</c></rc>
    <rc><c>Cu</c><c>   1</c></rc>
    <rc><c>Cu</c><c>   1</c></rc>
    <rc><c>Cu</c><c>   1</c></rc>
    <rc><c>Cu</c><c>   1</c></rc>
    <rc><c>Cu</c><c>   1</c></rc>
   </set>
  </array>
  <array name="atomtypes" >
   <dimension dim="1">type</dimension>
   <field type="int">atomspertype</field>
   <field type="string">element</field>
   <field>mass</field>
   <field>valence</field>
   <field type="string">pseudopotential</field>
   <set>
    <rc><c>   8</c><c>Cu</c><c>     63.54600000</c><c>     11.00000000</c><c> Cu: VAN0  d=2.0, optimized             </c></rc>
   </set>
  </array>
 </atominfo>
 <structure name="initialpos" >
  <crystal>
   <varray name="basis" >
    <v>       4.70000000       0.00000000       0.00000000 </v>
    <v>       0.00000000       4.70000000       0.00000000 </v>
    <v>       0.00000000       0.00000000       4.70000000 </v>
   </varray>
   <i name="volume">    103.82300000 </i>
   <varray name="rec_basis" >
    <v>       0.21276596       0.00000000       0.00000000 </v>
    <v>       0.00000000       0.21276596       0.00000000 </v>
    <v>       0.00000000       0.00000000       0.21276596 </v>
   </varray>
  </crystal>
  <varray name="positions" >
   <v>       0.19098171       0.98094506       0.11921653 </v>
   <v>       0.90441571       0.31124656       0.34852411 </v>
   <v>       0.93426429       0.33890980       0.81752238 </v>
   <v>       0.70388724       0.96143276       0.10990819 </v>
   <v>       0.39497669       0.30537621       0.35345206 </v>
   <v>       0.89841071       0.90110980       0.62360372 </v>
   <v>       0.40549245       0.86532668       0.55056467 </v>
   <v>       0.43048502       0.30400900       0.83033793 </v>
  </varray>
  <varray name="velocities" >
   <v>       0.00002905       0.00105498      -0.00145302 </v>
   <v>       0.00247058      -0.00213876      -0.00007726 </v>
   <v>      -0.00266674       0.00243535       0.00139128 </v>
   <v>      -0.00047317       0.00104381       0.00101772 </v>
   <v>       0.00077369      -0.00196934      -0.00080735 </v>
   <v>       0.00196371       0.00152733      -0.00122266 </v>
   <v>       0.00080468       0.00040469       0.00012828 </v>
   <v>      -0.00290180      -0.00235806       0.00102302 </v>
  </varray>
 </structure>
 <calculation>
  <scstep>
   <time name="dav">    0.10    0.10</time>
   <time name="total">    0.10    0.11</time>
   <energy>
    <i name="alphaZ">   1641.47957967 </i>
    <i name="ewald">  -8029.17517171 </i>
    <i name="hartreedc">  -2461.27783346 </i>
    <i name="XCdc">    462.27288684 </i>
    <i name="pawpsdc">      0.00000000 </i>
    <i name="pawaedc">      0.00000000 </i>
    <i name="eentropy">     -0.69241320 </i>
    <i name="bandstr">   -447.57465859 </i>
    <i name="atom">      0.00000000 </i>
    <i name="e_fr_energy">  -8834.96761046 </i>
    <i name="e_wo_entrp">  -8834.27519726 </i>
    <i name="e_0_energy">  -8834.62140386 </i>
   </energy>
  </scstep>
  <scstep>
   <time name="dav">    0.09    0.09</time>
   <time name="total">    0.10    0.10</time>
   <energy>
    <i name="e_fr_energy">  -9015.21306743 </i>
    <i name="e_wo_entrp">  -9013.75303952 </i>
    <i name="e_0_energy">  -9014.48305347 </i>
   </energy>
  </scstep>
  <scstep>
   <time name="dav">    0.10    0.10</time>
   <time name="total">    0.12    0.11</time>
   <energy>
    <i name="e_fr_energy">  -9029.81550236 </i>
    <i name="e_wo_entrp">  -9028.06507190 </i>
    <i name="e_0_energy">  -9028.94028713 </i>
   </energy>
  </scstep>
  <scstep>
   <time name="dav">    0.10    0.10</time>
   <time name="total">    0.12    0.12</time>
   <energy>
    <i name="e_fr_energy">  -9030.01830564 </i>
    <i name="e_wo_entrp">  -9028.25745700 </i>
    <i name="e_0_energy">  -9029.13788132 </i>
   </energy>
  </scstep>
  <scstep>
   <time name="dav">    0.10    0.10</time>
   <time name="total">    0.12    0.12</time>
   <energy>
    <i name="e_fr_energy">  -9030.01994173 </i>
    <i name="e_wo_entrp">  -9028.25906361 </i>
    <i name="e_0_energy">  -9029.13950267 </i>
   </energy>
  </scstep>
  <scstep>
   <time name="dav">    0.09    0.09</time>
   <time name="total">    0.12    0.12</time>
   <energy>
    <i name="e_fr_energy">  -9023.06635043 </i>
    <i name="e_wo_entrp">  -9021.52735385 </i>
    <i name="e_0_energy">  -9022.29685214 </i>
   </energy>
  </scstep>
  <scstep>
   <time name="dav">    0.10    0.10</time>
   <time name="total">    0.13    0.13</time>
   <energy>
    <i name="e_fr_energy">  -9023.07593859 </i>
    <i name="e_wo_entrp">  -9021.64723888 </i>
    <i name="e_0_energy">  -9022.36158874 </i>
   </energy>
  </scstep>
  <scstep>
   <time name="dav">    0.10    0.10</time>
   <time name="total">    0.12    0.12</time>
   <energy>
    <i name="e_fr_energy">  -9023.04231291 </i>
    <i name="e_wo_entrp">  -9021.54110337 </i>
    <i name="e_0_energy">  -9022.29170814 </i>
   </energy>
  </scstep>
  <scstep>
   <time name="dav">    0.10    0.10</time>
   <time name="total">    0.14    0.13</time>
   <energy>
    <i name="e_fr_energy">  -9023.03528089 </i>
    <i name="e_wo_entrp">  -9021.52594559 </i>
    <i name="e_0_energy">  -9022.28061324 </i>
   </energy>
  </scstep>
  <scstep>
   <time name="dav">    0.09    0.09</time>
   <time name="total">    0.12    0.12</time>
   <energy>
    <i name="e_fr_energy">  -9023.03526745 </i>
    <i name="e_wo_entrp">  -9021.52279117 </i>
    <i name="e_0_energy">  -9022.27902931 </i>
   </energy>
  </scstep>
  <scstep>
   <time name="dav">    0.12    0.13</time>
   <time name="total">    0.14    0.16</time>
   <energy>
    <i name="e_fr_energy">  -9023.03491510 </i>
    <i name="e_wo_entrp">  -9021.52788588 </i>
    <i name="e_0_energy">  -9022.28140049 </i>
   </energy>
  </scstep>
  <scstep>
   <time name="dav">    0.10    0.10</time>
   <time name="total">    0.12    0.12</time>
   <energy>
    <i name="alphaZ">   1641.47957967 </i>
    <i name="ewald">  -8029.17517171 </i>
    <i name="hartreedc">  -2302.18184366 </i>
    <i name="XCdc">    451.07493363 </i>
    <i name="pawpsdc">      0.00000000 </i>
    <i name="pawaedc">      0.00000000 </i>
    <i name="eentropy">     -1.50905548 </i>
    <i name="bandstr">   -782.72331276 </i>
    <i name="atom">      0.00000000 </i>
    <i name="e_fr_energy">  -9023.03487032 </i>
    <i name="e_wo_entrp">  -9021.52581483 </i>
    <i name="e_0_energy">  -9022.28034257 </i>
   </energy>
  </scstep>
  <structure>
   <crystal>
    <varray name="basis" >
     <v>       4.70000000       0.00000000       0.00000000 </v>
     <v>       0.00000000       4.70000000       0.00000000 </v>
     <v>       0.00000000       0.00000000       4.70000000 </v>
    </varray>
    <i name="volume">    103.82300000 </i>
    <varray name="rec_basis" >
     <v>       0.21276596       0.00000000       0.00000000 </v>
     <v>       0.00000000       0.21276596       0.00000000 </v>
     <v>       0.00000000       0.00000000       0.21276596 </v>
    </varray>
   </crystal>
   <varray name="positions" >
    <v>       0.19098171       0.98094506       0.11921653 </v>
    <v>       0.90441571       0.31124656       0.34852411 </v>
    <v>       0.93426429       0.33890980       0.81752238 </v>
    <v>       0.70388724       0.96143276       0.10990819 </v>
    <v>       0.39497669       0.30537621       0.35345206 </v>
    <v>       0.89841071       0.90110980       0.62360372 </v>
    <v>       0.40549245       0.86532668       0.55056467 </v>
    <v>       0.43048502       0.30400900       0.83033793 </v>
   </varray>
  </structure>
  <varray name="forces" >
   <v>      -0.75914109      -4.07103218      -1.67693491 </v>
   <v>      -0.85974973       3.22182814      -0.36237406 </v>
   <v>       0.44278864       3.53804849       0.82830383 </v>
   <v>      -0.79881291      -3.31432219      -0.99313701 </v>
   <v>       0.57340130       4.30950030       0.74650454 </v>
   <v>       0.31442827      -2.41482004       0.85010920 </v>
   <v>       0.08922886      -2.75573938       0.37540625 </v>
   <v>       0.89190165       1.55535096       0.01615677 </v>
  </varray>
  <energy>
   <i name="e_fr_energy">  -9023.03487032 </i>
   <i name="e_wo_entrp">  -9022.28034257 </i>
   <i name="e_0_energy">     -1.50905548 </i>
   <i name="kinetic">      1.87880607 </i>
   <i name="nosepot">      0.00000000 </i>
   <i name="nosekinetic">      0.00000555 </i>
   <i name="total">  -9021.15605870 </i>
  </energy>
  <time name="totalsc">    1.60    1.62</time>
 </calculation>
 <calculation>
  <scstep>
   <time name="dav">    0.09    0.09</time>
   <time name="total">    0.11    0.11</time>
   <energy>
    <i name="alphaZ">   1641.47957967 </i>
    <i name="ewald">  -8018.24825364 </i>
    <i name="hartreedc">  -2312.77033686 </i>
    <i name="XCdc">    451.13141957 </i>
    <i name="pawpsdc">      0.00000000 </i>
    <i name="pawaedc">      0.00000000 </i>
    <i name="eentropy">     -1.51110572 </i>
    <i name="bandstr">   -783.02119273 </i>
    <i name="atom">      0.00000000 </i>
    <i name="e_fr_energy">  -9022.93988972 </i>
    <i name="e_wo_entrp">  -9021.42878400 </i>
    <i name="e_0_energy">  -9022.18433686 </i>
   </energy>
  </scstep>
  <scstep>
   <time name="dav">    0.10    0.10</time>
   <time name="total">    0.13    0.13</time>
   <energy>
    <i name="e_fr_energy">  -9022.94259693 </i>
    <i name="e_wo_entrp">  -9021.42914624 </i>
    <i name="e_0_energy">  -9022.18587158 </i>
   </energy>
  </scstep>
  <scstep>
   <time name="dav">    0.10    0.10</time>
   <time name="total">    0.13    0.13</time>
   <energy>
    <i name="e_fr_energy">  -9022.94242799 </i>
    <i name="e_wo_entrp">  -9021.43257427 </i>
    <i name="e_0_energy">  -9022.18750113 </i>
   </energy>
  </scstep>
  <scstep>
   <time name="dav">    0.26    0.27</time>
   <time name="total">    0.28    0.28</time>
   <energy>
    <i name="alphaZ">   1641.47957967 </i>
    <i name="ewald">  -8018.24825364 </i>
    <i name="hartreedc">  -2312.74201037 </i>
    <i name="XCdc">    451.12387107 </i>
    <i name="pawpsdc">      0.00000000 </i>
    <i name="pawaedc">      0.00000000 </i>
    <i name="eentropy">     -1.51182489 </i>
    <i name="bandstr">   -783.04373901 </i>
    <i name="atom">      0.00000000 </i>
    <i name="e_fr_energy">  -9022.94237717 </i>
    <i name="e_wo_entrp">  -9021.43055228 </i>
    <i name="e_0_energy">  -9022.18646472 </i>
   </energy>
  </scstep>
  <structure>
   <crystal>
    <varray name="basis" >
     <v>       4.70000000       0.00000000       0.00000000 </v>
     <v>       0.00000000       4.70000000       0.00000000 </v>
     <v>       0.00000000       0.00000000       4.70000000 </v>
    </varray>
    <i name="volume">    103.82300000 </i>
    <varray name="rec_basis" >
     <v>       0.21276596       0.00000000       0.00000000 </v>
     <v>       0.00000000       0.21276596       0.00000000 </v>
     <v>       0.00000000       0.00000000       0.21276596 </v>
    </varray>
   </crystal>
   <varray name="positions" >
    <v>       0.19095558       0.98170409       0.11764171 </v>
    <v>       0.90682366       0.30934209       0.34842052 </v>
    <v>       0.93162989       0.34160215       0.81897377 </v>
    <v>       0.70335604       0.96223562       0.11085366 </v>
    <v>       0.39579201       0.30372020       0.35269902 </v>
    <v>       0.90039716       0.90246153       0.62244292 </v>
    <v>       0.40630357       0.86553105       0.55072023 </v>
    <v>       0.42764822       0.30176412       0.83136206 </v>
   </varray>
  </structure>
  <varray name="forces" >
   <v>      -0.82372408      -4.27374644      -1.70893432 </v>
   <v>      -0.82257576       3.32408294      -0.25513536 </v>
   <v>       0.31738641       3.62196723       0.74810608 </v>
   <v>      -0.78515227      -3.39251694      -1.00417622 </v>
   <v>       0.73717323       4.43635625       0.84396710 </v>
   <v>       0.25726376      -2.42325037       0.95105972 </v>
   <v>       0.09075124      -2.84274876       0.35166202 </v>
   <v>       0.85714620       1.61880874      -0.12885815 </v>
  </varray>
  <energy>
   <i name="e_fr_energy">  -9022.94237717 </i>
   <i name="e_wo_entrp">  -9022.18646472 </i>
   <i name="e_0_energy">     -1.51182489 </i>
   <i name="kinetic">      1.78589170 </i>
   <i name="nosepot">      0.00040875 </i>
   <i name="nosekinetic">      0.00003455 </i>
   <i name="total">  -9021.15604217 </i>
  </energy>
  <time name="totalsc">    0.79    0.79</time>
 </calculation>
 <calculation>
  <scstep>
   <time name="dav">    0.08    0.10</time>
   <time name="total">    0.10    0.12</time>
   <energy>
    <i name="alphaZ">   1641.47957967 </i>
    <i name="ewald">  -8010.82020539 </i>
    <i name="hartreedc">  -2319.93290986 </i>
    <i name="XCdc">    451.15127676 </i>
    <i name="pawpsdc">      0.00000000 </i>
    <i name="pawaedc">      0.00000000 </i>
    <i name="eentropy">     -1.51603590 </i>
    <i name="bandstr">   -783.24378904 </i>
    <i name="atom">      0.00000000 </i>
    <i name="e_fr_energy">  -9022.88208376 </i>
    <i name="e_wo_entrp">  -9021.36604786 </i>
    <i name="e_0_energy">  -9022.12406581 </i>
   </energy>
  </scstep>
  <scstep>
   <time name="dav">    0.09    0.09</time>
   <time name="total">    0.12    0.12</time>
   <energy>
    <i name="e_fr_energy">  -9022.88263990 </i>
    <i name="e_wo_entrp">  -9021.36646117 </i>
    <i name="e_0_energy">  -9022.12455053 </i>
   </energy>
  </scstep>
  <scstep>
   <time name="dav">    0.06    0.06</time>
   <time name="total">    0.09    0.09</time>
   <energy>
    <i name="alphaZ">   1641.47957967 </i>
    <i name="ewald">  -8010.82020539 </i>
    <i name="hartreedc">  -2320.00406022 </i>
    <i name="XCdc">    451.15724781 </i>
    <i name="pawpsdc">      0.00000000 </i>
    <i name="pawaedc">      0.00000000 </i>
    <i name="eentropy">     -1.51593581 </i>
    <i name="bandstr">   -783.17926666 </i>
    <i name="atom">      0.00000000 </i>
    <i name="e_fr_energy">  -9022.88264060 </i>
    <i name="e_wo_entrp">  -9021.36670479 </i>
    <i name="e_0_energy">  -9022.12467270 </i>
   </energy>
  </scstep>
  <structure>
   <crystal>
    <varray name="basis" >
     <v>       4.70000000       0.00000000       0.00000000 </v>
     <v>       0.00000000       4.70000000       0.00000000 </v>
     <v>       0.00000000       0.00000000       4.70000000 </v>
    </varray>
    <i name="volume">    103.82300000 </i>
    <varray name="rec_basis" >
     <v>       0.21276596       0.00000000       0.00000000 </v>
     <v>       0.00000000       0.21276596       0.00000000 </v>
     <v>       0.00000000       0.00000000       0.21276596 </v>
    </varray>
   </crystal>
   <varray name="positions" >
    <v>       0.19086960       0.98215240       0.11594293 </v>
    <v>       0.90917146       0.30767950       0.34829840 </v>
    <v>       0.92901895       0.34455734       0.82047932 </v>
    <v>       0.70276785       0.96279181       0.11172601 </v>
    <v>       0.39666077       0.30238687       0.35200742 </v>
    <v>       0.90240200       0.90363695       0.62135141 </v>
    <v>       0.40712116       0.86552879       0.55090132 </v>
    <v>       0.42487415       0.29963723       0.83237667 </v>
   </varray>
  </structure>
  <varray name="forces" >
   <v>      -0.88498281      -4.43514782      -1.71225839 </v>
   <v>      -0.78176245       3.40044022      -0.15090146 </v>
   <v>       0.18072797       3.69303060       0.66492792 </v>
   <v>      -0.75484354      -3.45150401      -1.00624946 </v>
   <v>       0.87856908       4.50550849       0.91619809 </v>
   <v>       0.20901301      -2.40514130       1.04624883 </v>
   <v>       0.09697364      -2.90748258       0.32393905 </v>
   <v>       0.82636478       1.67377753      -0.28217520 </v>
  </varray>
  <energy>
   <i name="e_fr_energy">  -9022.88264060 </i>
   <i name="e_wo_entrp">  -9022.12467270 </i>
   <i name="e_0_energy">     -1.51593581 </i>
   <i name="kinetic">      1.72552301 </i>
   <i name="nosepot">      0.00101991 </i>
   <i name="nosekinetic">      0.00005533 </i>
   <i name="total">  -9021.15604235 </i>
  </energy>
  <time name="totalsc">    0.43    0.48</time>
 </calculation>
 <calculation>
  <scstep>
   <time name="dav">    0.08    0.09</time>
   <time name="total">    0.10    0.10</time>
   <energy>
    <i name="alphaZ">   1641.47957967 </i>
    <i name="ewald">  -8007.07679861 </i>
    <i name="hartreedc">  -2323.63198554 </i>
    <i name="XCdc">    451.16793745 </i>
    <i name="pawpsdc">      0.00000000 </i>
    <i name="pawaedc">      0.00000000 </i>
    <i name="eentropy">     -1.52071990 </i>
    <i name="bandstr">   -783.27606154 </i>
    <i name="atom">      0.00000000 </i>
    <i name="e_fr_energy">  -9022.85804846 </i>
    <i name="e_wo_entrp">  -9021.33732856 </i>
    <i name="e_0_energy">  -9022.09768851 </i>
   </energy>
  </scstep>
  <scstep>
   <time name="dav">    0.09    0.09</time>
   <time name="total">    0.11    0.11</time>
   <energy>
    <i name="alphaZ">   1641.47957967 </i>
    <i name="ewald">  -8007.07679861 </i>
    <i name="hartreedc">  -2323.57696618 </i>
    <i name="XCdc">    451.16652279 </i>
    <i name="pawpsdc">      0.00000000 </i>
    <i name="pawaedc">      0.00000000 </i>
    <i name="eentropy">     -1.52018770 </i>
    <i name="bandstr">   -783.33027716 </i>
    <i name="atom">      0.00000000 </i>
    <i name="e_fr_energy">  -9022.85812718 </i>
    <i name="e_wo_entrp">  -9021.33793949 </i>
    <i name="e_0_energy">  -9022.09803333 </i>
   </energy>
  </scstep>
  <structure>
   <crystal>
    <varray name="basis" >
     <v>       4.70000000       0.00000000       0.00000000 </v>
     <v>       0.00000000       4.70000000       0.00000000 </v>
     <v>       0.00000000       0.00000000       4.70000000 </v>
    </varray>
    <i name="volume">    103.82300000 </i>
    <varray name="rec_basis" >
     <v>       0.21276596       0.00000000       0.00000000 </v>
     <v>       0.00000000       0.21276596       0.00000000 </v>
     <v>       0.00000000       0.00000000       0.21276596 </v>
    </varray>
   </crystal>
   <varray name="positions" >
    <v>       0.19071931       0.98227830       0.11412004 </v>
    <v>       0.91146200       0.30626435       0.34816535 </v>
    <v>       0.92642165       0.34778035       0.82203290 </v>
    <v>       0.70212492       0.96309704       0.11252507 </v>
    <v>       0.39759323       0.30138123       0.35138255 </v>
    <v>       0.90442166       0.90463734       0.62033615 </v>
    <v>       0.40794564       0.86531523       0.55110592 </v>
    <v>       0.42216066       0.29763239       0.83337058 </v>
   </varray>
  </structure>
  <varray name="forces" >
   <v>      -0.92797901      -4.55539866      -1.67836868 </v>
   <v>      -0.74098918       3.45040148      -0.06058083 </v>
   <v>       0.05027436       3.75286866       0.58368148 </v>
   <v>      -0.71834115      -3.48856617      -0.99322334 </v>
   <v>       0.99562670       4.51701308       0.96003304 </v>
   <v>       0.15574190      -2.37129361       1.13359273 </v>
   <v>       0.10450391      -2.94951108       0.28868974 </v>
   <v>       0.79898472       1.72709957      -0.43837952 </v>
  </varray>
  <energy>
   <i name="e_fr_energy">  -9022.85812718 </i>
   <i name="e_wo_entrp">  -9022.09803333 </i>
   <i name="e_0_energy">     -1.52018770 </i>
   <i name="kinetic">      1.70047878 </i>
   <i name="nosepot">      0.00169945 </i>
   <i name="nosekinetic">      0.00006250 </i>
   <i name="total">  -9021.15588646 </i>
  </energy>
  <time name="totalsc">    0.37    0.36</time>
 </calculation>
 <calculation>
  <scstep>
   <time name="dav">    0.06    0.06</time>
   <time name="total">    0.08    0.08</time>
   <energy>
    <i name="alphaZ">   1641.47957967 </i>
    <i name="ewald">  -8007.12753079 </i>
    <i name="hartreedc">  -2323.51205703 </i>
    <i name="XCdc">    451.16232916 </i>
    <i name="pawpsdc">      0.00000000 </i>
    <i name="pawaedc">      0.00000000 </i>
    <i name="eentropy">     -1.52583607 </i>
    <i name="bandstr">   -783.34666500 </i>
    <i name="atom">      0.00000000 </i>
    <i name="e_fr_energy">  -9022.87018006 </i>
    <i name="e_wo_entrp">  -9021.34434399 </i>
    <i name="e_0_energy">  -9022.10726203 </i>
   </energy>
  </scstep>
  <scstep>
   <time name="dav">    0.10    0.10</time>
   <time name="total">    0.11    0.11</time>
   <energy>
    <i name="alphaZ">   1641.47957967 </i>
    <i name="ewald">  -8007.12753079 </i>
    <i name="hartreedc">  -2323.55481560 </i>
    <i name="XCdc">    451.16548173 </i>
    <i name="pawpsdc">      0.00000000 </i>
    <i name="pawaedc">      0.00000000 </i>
    <i name="eentropy">     -1.52609227 </i>
    <i name="bandstr">   -783.30688627 </i>
    <i name="atom">      0.00000000 </i>
    <i name="e_fr_energy">  -9022.87026353 </i>
    <i name="e_wo_entrp">  -9021.34417126 </i>
    <i name="e_0_energy">  -9022.10721740 </i>
   </energy>
  </scstep>
  <structure>
   <crystal>
    <varray name="basis" >
     <v>       4.70000000       0.00000000       0.00000000 </v>
     <v>       0.00000000       4.70000000       0.00000000 </v>
     <v>       0.00000000       0.00000000       4.70000000 </v>
    </varray>
    <i name="volume">    103.82300000 </i>
    <varray name="rec_basis" >
     <v>       0.21276596       0.00000000       0.00000000 </v>
     <v>       0.00000000       0.21276596       0.00000000 </v>
     <v>       0.00000000       0.00000000       0.21276596 </v>
    </varray>
   </crystal>
   <varray name="positions" >
    <v>       0.19050161       0.98207311       0.11217553 </v>
    <v>       0.91369822       0.30510025       0.34802791 </v>
    <v>       0.92382852       0.35127545       0.82362859 </v>
    <v>       0.70142991       0.96314869       0.11325178 </v>
    <v>       0.39859785       0.30070407       0.35082757 </v>
    <v>       0.90645222       0.90546520       0.61940348 </v>
    <v>       0.40877755       0.86488735       0.55133146 </v>
    <v>       0.41950578       0.29575347       0.83433243 </v>
   </varray>
  </structure>
  <varray name="forces" >
   <v>      -0.95760923      -4.62797359      -1.60221162 </v>
   <v>      -0.70363236       3.47119904       0.01667993 </v>
   <v>      -0.06855912       3.79933947       0.50656015 </v>
   <v>      -0.67490242      -3.49507646      -0.96290719 </v>
   <v>       1.07973199       4.47497724       0.97183966 </v>
   <v>       0.09880277      -2.32466025       1.21061145 </v>
   <v>       0.11181465      -2.96451300       0.25059733 </v>
   <v>       0.78575353       1.77595771      -0.58939467 </v>
  </varray>
  <energy>
   <i name="e_fr_energy">  -9022.87026353 </i>
   <i name="e_wo_entrp">  -9022.10721740 </i>
   <i name="e_0_energy">     -1.52609227 </i>
   <i name="kinetic">      1.71199095 </i>
   <i name="nosepot">      0.00239173 </i>
   <i name="nosekinetic">      0.00006724 </i>
   <i name="total">  -9021.15581361 </i>
  </energy>
  <dos>
   <i name="efermi">     -5.35077208 </i>
   <total>
    <array>
     <dimension dim="1">gridpoints</dimension>
     <dimension dim="2">spin</dimension>
     <field>energy</field>
     <field>total</field>
     <field>integrated</field>
     <set>
      <set comment="spin 1">
       <r> -22.8946   0.0000   0.0000 </r>
       <r> -22.7913   0.0000   0.0000 </r>
       <r> -22.6880   0.0000   0.0000 </r>
       <r> -22.5847   0.0000   0.0000 </r>
       <r> -22.4813   0.0000   0.0000 </r>
       <r> -22.3780   0.0000   0.0000 </r>
       <r> -22.2747   0.0000   0.0000 </r>
       <r> -22.1714   0.0000   0.0000 </r>
       <r> -22.0681   0.0000   0.0000 </r>
       <r> -21.9647   0.0000   0.0000 </r>
       <r> -21.8614   0.0000   0.0000 </r>
       <r> -21.7581   0.0000   0.0000 </r>
       <r> -21.6548   0.0000   0.0000 </r>
       <r> -21.5515   0.0000   0.0000 </r>
       <r> -21.4481   0.0000   0.0000 </r>
       <r> -21.3448   0.0000   0.0000 </r>
       <r> -21.2415   0.0000   0.0000 </r>
       <r> -21.1382   0.0000   0.0000 </r>
       <r> -21.0348   0.0000   0.0000 </r>
       <r> -20.9315   0.0000   0.0000 </r>
       <r> -20.8282   0.0000   0.0000 </r>
       <r> -20.7249   0.0000   0.0000 </r>
       <r> -20.6216   0.0000   0.0000 </r>
       <r> -20.5182   0.0000   0.0000 </r>
       <r> -20.4149   0.0000   0.0000 </r>
       <r> -20.3116   0.0000   0.0000 </r>
       <r> -20.2083   0.0000   0.0000 </r>
       <r> -20.1050   0.0000   0.0000 </r>
       <r> -20.0016   0.0000   0.0000 </r>
       <r> -19.8983   0.0000   0.0000 </r>
       <r> -19.7950   0.0000   0.0000 </r>
       <r> -19.6917   0.0000   0.0000 </r>
       <r> -19.5884   0.0000   0.0000 </r>
       <r> -19.4850   0.0000   0.0000 </r>
       <r> -19.3817   0.0000   0.0000 </r>
       <r> -19.2784   0.0000   0.0000 </r>
       <r> -19.1751   0.0000   0.0000 </r>
       <r> -19.0717   0.0000   0.0000 </r>
       <r> -18.9684   0.0000   0.0000 </r>
       <r> -18.8651   0.0000   0.0000 </r>
       <r> -18.7618   0.0000   0.0000 </r>
       <r> -18.6585   0.0000   0.0000 </r>
       <r> -18.5551   0.0000   0.0000 </r>
       <r> -18.4518   0.0000   0.0000 </r>
       <r> -18.3485   0.0000   0.0000 </r>
       <r> -18.2452   0.0000   0.0000 </r>
       <r> -18.1419   0.0000   0.0000 </r>
       <r> -18.0385   0.0000   0.0000 </r>
       <r> -17.9352   0.0000   0.0000 </r>
       <r> -17.8319   0.0000   0.0000 </r>
       <r> -17.7286   0.0000   0.0000 </r>
       <r> -17.6252   0.0000   0.0000 </r>
       <r> -17.5219   0.0001   0.0000 </r>
       <r> -17.4186   0.0002   0.0000 </r>
       <r> -17.3153   0.0005   0.0001 </r>
       <r> -17.2120   0.0011   0.0002 </r>
       <r> -17.1086   0.0023   0.0004 </r>
       <r> -17.0053   0.0047   0.0009 </r>
       <r> -16.9020   0.0094   0.0019 </r>
       <r> -16.7987   0.0179   0.0038 </r>
       <r> -16.6954   0.0330   0.0072 </r>
       <r> -16.5920   0.0590   0.0133 </r>
       <r> -16.4887   0.1020   0.0238 </r>
       <r> -16.3854   0.1706   0.0414 </r>
       <r> -16.2821   0.2759   0.0699 </r>
       <r> -16.1787   0.4315   0.1145 </r>
       <r> -16.0754   0.6530   0.1819 </r>
       <r> -15.9721   0.9558   0.2806 </r>
       <r> -15.8688   1.3533   0.4204 </r>
       <r> -15.7655   1.8535   0.6118 </r>
       <r> -15.6621   2.4555   0.8654 </r>
       <r> -15.5588   3.1468   1.1904 </r>
       <r> -15.4555   3.9007   1.5932 </r>
       <r> -15.3522   4.6773   2.0763 </r>
       <r> -15.2489   5.4251   2.6366 </r>
       <r> -15.1455   6.0868   3.2652 </r>
       <r> -15.0422   6.6060   3.9474 </r>
       <r> -14.9389   6.9350   4.6637 </r>
       <r> -14.8356   7.0424   5.3910 </r>
       <r> -14.7323   6.9176   6.1054 </r>
       <r> -14.6289   6.5730   6.7842 </r>
       <r> -14.5256   6.0413   7.4081 </r>
       <r> -14.4223   5.3711   7.9628 </r>
       <r> -14.3190   4.6192   8.4399 </r>
       <r> -14.2156   3.8426   8.8367 </r>
       <r> -14.1123   3.0921   9.1561 </r>
       <r> -14.0090   2.4069   9.4047 </r>
       <r> -13.9057   1.8124   9.5918 </r>
       <r> -13.8024   1.3202   9.7282 </r>
       <r> -13.6990   0.9307   9.8243 </r>
       <r> -13.5957   0.6356   9.8899 </r>
       <r> -13.4924   0.4218   9.9335 </r>
       <r> -13.3891   0.2748   9.9619 </r>
       <r> -13.2858   0.1812   9.9806 </r>
       <r> -13.1824   0.1309   9.9941 </r>
       <r> -13.0791   0.1185  10.0063 </r>
       <r> -12.9758   0.1449  10.0213 </r>
       <r> -12.8725   0.2181  10.0438 </r>
       <r> -12.7691   0.3551  10.0805 </r>
       <r> -12.6658   0.5831  10.1407 </r>
       <r> -12.5625   0.9410  10.2379 </r>
       <r> -12.4592   1.4802  10.3908 </r>
       <r> -12.3559   2.2645  10.6247 </r>
       <r> -12.2525   3.3679  10.9725 </r>
       <r> -12.1492   4.8699  11.4754 </r>
       <r> -12.0459   6.8488  12.1828 </r>
       <r> -11.9426   9.3718  13.1506 </r>
       <r> -11.8393  12.4840  14.4399 </r>
       <r> -11.7359  16.1974  16.1128 </r>
       <r> -11.6326  20.4817  18.2280 </r>
       <r> -11.5293  25.2591  20.8367 </r>
       <r> -11.4260  30.4050  23.9768 </r>
       <r> -11.3226  35.7560  27.6696 </r>
       <r> -11.2193  41.1237  31.9166 </r>
       <r> -11.1160  46.3143  36.6998 </r>
       <r> -11.0127  51.1497  41.9823 </r>
       <r> -10.9094  55.4880  47.7129 </r>
       <r> -10.8060  59.2379  53.8308 </r>
       <r> -10.7027  62.3670  60.2718 </r>
       <r> -10.5994  64.9007  66.9744 </r>
       <r> -10.4961  66.9133  73.8850 </r>
       <r> -10.3928  68.5137  80.9608 </r>
       <r> -10.2894  69.8290  88.1724 </r>
       <r> -10.1861  70.9898  95.5039 </r>
       <r> -10.0828  72.1195 102.9521 </r>
       <r>  -9.9795  73.3289 110.5252 </r>
       <r>  -9.8762  74.7150 118.2415 </r>
       <r>  -9.7728  76.3621 126.1278 </r>
       <r>  -9.6695  78.3412 134.2186 </r>
       <r>  -9.5662  80.7057 142.5535 </r>
       <r>  -9.4629  83.4838 151.1754 </r>
       <r>  -9.3595  86.6662 160.1259 </r>
       <r>  -9.2562  90.1958 169.4410 </r>
       <r>  -9.1529  93.9615 179.1450 </r>
       <r>  -9.0496  97.8017 189.2456 </r>
       <r>  -8.9463 101.5181 199.7300 </r>
       <r>  -8.8429 104.9005 210.5637 </r>
       <r>  -8.7396 107.7568 221.6924 </r>
       <r>  -8.6363 109.9413 233.0467 </r>
       <r>  -8.5330 111.3748 244.5490 </r>
       <r>  -8.4297 112.0505 256.1211 </r>
       <r>  -8.3263 112.0229 267.6904 </r>
       <r>  -8.2230 111.3828 279.1936 </r>
       <r>  -8.1197 110.2250 290.5772 </r>
       <r>  -8.0164 108.6168 301.7947 </r>
       <r>  -7.9130 106.5765 312.8015 </r>
       <r>  -7.8097 104.0681 323.5492 </r>
       <r>  -7.7064 101.0127 333.9814 </r>
       <r>  -7.6031  97.3144 344.0316 </r>
       <r>  -7.4998  92.8930 353.6252 </r>
       <r>  -7.3964  87.7154 362.6841 </r>
       <r>  -7.2931  81.8176 371.1339 </r>
       <r>  -7.1898  75.3135 378.9119 </r>
       <r>  -7.0865  68.3878 385.9747 </r>
       <r>  -6.9832  61.2768 392.3032 </r>
       <r>  -6.8798  54.2425 397.9051 </r>
       <r>  -6.7765  47.5433 402.8152 </r>
       <r>  -6.6732  41.4088 407.0917 </r>
       <r>  -6.5699  36.0196 410.8117 </r>
       <r>  -6.4665  31.4958 414.0645 </r>
       <r>  -6.3632  27.8915 416.9450 </r>
       <r>  -6.2599  25.1979 419.5473 </r>
       <r>  -6.1566  23.3502 421.9589 </r>
       <r>  -6.0533  22.2398 424.2557 </r>
       <r>  -5.9499  21.7294 426.4998 </r>
       <r>  -5.8466  21.6686 428.7377 </r>
       <r>  -5.7433  21.9095 431.0004 </r>
       <r>  -5.6400  22.3196 433.3055 </r>
       <r>  -5.5367  22.7896 435.6591 </r>
       <r>  -5.4333  23.2370 438.0589 </r>
       <r>  -5.3300  23.6039 440.4966 </r>
       <r>  -5.2267  23.8511 442.9599 </r>
       <r>  -5.1234  23.9495 445.4333 </r>
       <r>  -5.0200  23.8731 447.8988 </r>
       <r>  -4.9167  23.5939 450.3355 </r>
       <r>  -4.8134  23.0815 452.7193 </r>
       <r>  -4.7101  22.3069 455.0230 </r>
       <r>  -4.6068  21.2497 457.2176 </r>
       <r>  -4.5034  19.9057 459.2734 </r>
       <r>  -4.4001  18.2935 461.1627 </r>
       <r>  -4.2968  16.4572 462.8623 </r>
       <r>  -4.1935  14.4641 464.3561 </r>
       <r>  -4.0902  12.3979 465.6365 </r>
       <r>  -3.9868  10.3486 466.7053 </r>
       <r>  -3.8835   8.4015 467.5729 </r>
       <r>  -3.7802   6.6271 468.2574 </r>
       <r>  -3.6769   5.0748 468.7815 </r>
       <r>  -3.5736   3.7701 469.1708 </r>
       <r>  -3.4702   2.7160 469.4513 </r>
       <r>  -3.3669   1.8967 469.6472 </r>
       <r>  -3.2636   1.2844 469.7798 </r>
       <r>  -3.1603   0.8447 469.8671 </r>
       <r>  -3.0569   0.5427 469.9231 </r>
       <r>  -2.9536   0.3467 469.9589 </r>
       <r>  -2.8503   0.2317 469.9829 </r>
       <r>  -2.7470   0.1804 470.0015 </r>
       <r>  -2.6437   0.1843 470.0205 </r>
       <r>  -2.5403   0.2441 470.0457 </r>
       <r>  -2.4370   0.3691 470.0838 </r>
       <r>  -2.3337   0.5777 470.1435 </r>
       <r>  -2.2304   0.8961 470.2361 </r>
       <r>  -2.1271   1.3569 470.3762 </r>
       <r>  -2.0237   1.9964 470.5824 </r>
       <r>  -1.9204   2.8508 470.8768 </r>
       <r>  -1.8171   3.9513 471.2848 </r>
       <r>  -1.7138   5.3179 471.8341 </r>
       <r>  -1.6104   6.9547 472.5523 </r>
       <r>  -1.5071   8.8453 473.4658 </r>
       <r>  -1.4038  10.9515 474.5968 </r>
       <r>  -1.3005  13.2140 475.9615 </r>
       <r>  -1.1972  15.5575 477.5682 </r>
       <r>  -1.0938  17.8959 479.4165 </r>
       <r>  -0.9905  20.1398 481.4964 </r>
       <r>  -0.8872  22.2032 483.7895 </r>
       <r>  -0.7839  24.0072 486.2689 </r>
       <r>  -0.6806  25.4833 488.9007 </r>
       <r>  -0.5772  26.5735 491.6451 </r>
       <r>  -0.4739  27.2309 494.4574 </r>
       <r>  -0.3706  27.4203 497.2892 </r>
       <r>  -0.2673  27.1208 500.0902 </r>
       <r>  -0.1639  26.3297 502.8094 </r>
       <r>  -0.0606  25.0664 505.3982 </r>
       <r>   0.0427  23.3761 507.8123 </r>
       <r>   0.1460  21.3299 510.0152 </r>
       <r>   0.2493  19.0218 511.9797 </r>
       <r>   0.3527  16.5612 513.6901 </r>
       <r>   0.4560  14.0630 515.1424 </r>
       <r>   0.5593  11.6367 516.3442 </r>
       <r>   0.6626   9.3758 517.3125 </r>
       <r>   0.7659   7.3506 518.0717 </r>
       <r>   0.8693   5.6042 518.6504 </r>
       <r>   0.9726   4.1531 519.0794 </r>
       <r>   1.0759   2.9902 519.3882 </r>
       <r>   1.1792   2.0909 519.6041 </r>
       <r>   1.2825   1.4194 519.7507 </r>
       <r>   1.3859   0.9353 519.8473 </r>
       <r>   1.4892   0.5979 519.9090 </r>
       <r>   1.5925   0.3709 519.9473 </r>
       <r>   1.6958   0.2231 519.9704 </r>
       <r>   1.7992   0.1301 519.9838 </r>
       <r>   1.9025   0.0736 519.9914 </r>
       <r>   2.0058   0.0403 519.9956 </r>
       <r>   2.1091   0.0214 519.9978 </r>
       <r>   2.2124   0.0110 519.9989 </r>
       <r>   2.3158   0.0055 519.9995 </r>
       <r>   2.4191   0.0027 519.9998 </r>
       <r>   2.5224   0.0012 519.9999 </r>
       <r>   2.6257   0.0006 520.0000 </r>
       <r>   2.7290   0.0002 520.0000 </r>
       <r>   2.8324   0.0001 520.0000 </r>
       <r>   2.9357   0.0000 520.0000 </r>
       <r>   3.0390   0.0000 520.0000 </r>
       <r>   3.1423   0.0000 520.0000 </r>
       <r>   3.2457   0.0000 520.0000 </r>
       <r>   3.3490   0.0000 520.0000 </r>
       <r>   3.4523   0.0000 520.0000 </r>
       <r>   3.5556   0.0000 520.0000 </r>
       <r>   3.6589   0.0000 520.0000 </r>
       <r>   3.7623   0.0000 520.0000 </r>
       <r>   3.8656   0.0000 520.0000 </r>
       <r>   3.9689   0.0000 520.0000 </r>
       <r>   4.0722   0.0000 520.0000 </r>
       <r>   4.1755   0.0000 520.0000 </r>
       <r>   4.2789   0.0000 520.0000 </r>
       <r>   4.3822   0.0000 520.0000 </r>
       <r>   4.4855   0.0000 520.0000 </r>
       <r>   4.5888   0.0000 520.0000 </r>
       <r>   4.6922   0.0000 520.0000 </r>
       <r>   4.7955   0.0000 520.0000 </r>
       <r>   4.8988   0.0000 520.0000 </r>
       <r>   5.0021   0.0000 520.0000 </r>
       <r>   5.1054   0.0000 520.0000 </r>
       <r>   5.2088   0.0000 520.0000 </r>
       <r>   5.3121   0.0000 520.0000 </r>
       <r>   5.4154   0.0000 520.0000 </r>
       <r>   5.5187   0.0000 520.0000 </r>
       <r>   5.6220   0.0000 520.0000 </r>
       <r>   5.7254   0.0000 520.0000 </r>
       <r>   5.8287   0.0000 520.0000 </r>
       <r>   5.9320   0.0000 520.0000 </r>
       <r>   6.0353   0.0000 520.0000 </r>
       <r>   6.1386   0.0000 520.0000 </r>
       <r>   6.2420   0.0000 520.0000 </r>
       <r>   6.3453   0.0000 520.0000 </r>
       <r>   6.4486   0.0000 520.0000 </r>
       <r>   6.5519   0.0000 520.0000 </r>
       <r>   6.6553   0.0000 520.0000 </r>
       <r>   6.7586   0.0000 520.0000 </r>
       <r>   6.8619   0.0000 520.0000 </r>
       <r>   6.9652   0.0000 520.0000 </r>
       <r>   7.0685   0.0000 520.0000 </r>
       <r>   7.1719   0.0000 520.0000 </r>
       <r>   7.2752   0.0000 520.0000 </r>
       <r>   7.3785   0.0000 520.0000 </r>
       <r>   7.4818   0.0000 520.0000 </r>
       <r>   7.5851   0.0000 520.0000 </r>
       <r>   7.6885   0.0000 520.0000 </r>
       <r>   7.7918   0.0000 520.0000 </r>
       <r>   7.8951   0.0000 520.0000 </r>
       <r>   7.9984   0.0000 520.0000 </r>
       <r>   8.1018   0.0000 520.0000 </r>
      </set>
     </set>
    </array>
   </total>
  </dos>
  <time name="totalsc">    0.41    0.42</time>
  <eigenvalues>
   <array>
    <dimension dim="1">band</dimension>
    <dimension dim="2">kpoint</dimension>
    <dimension dim="3">spin</dimension>
    <field>eigene</field>
    <field>occ</field>
    <set>
     <set comment="spin 1">
      <set comment="kpoint 1">
       <r>  -14.8936    1.0000 </r>
       <r>  -11.3109    1.0000 </r>
       <r>  -11.1344    1.0000 </r>
       <r>  -11.0025    1.0000 </r>
       <r>  -10.8260    1.0000 </r>
       <r>  -10.8007    1.0000 </r>
       <r>  -10.6680    1.0000 </r>
       <r>  -10.4927    1.0000 </r>
       <r>  -10.3591    1.0000 </r>
       <r>  -10.1449    1.0000 </r>
       <r>   -9.9552    1.0000 </r>
       <r>   -9.8727    1.0000 </r>
       <r>   -9.7336    1.0000 </r>
       <r>   -9.6360    1.0000 </r>
       <r>   -9.5659    1.0000 </r>
       <r>   -9.3592    1.0000 </r>
       <r>   -9.2008    1.0000 </r>
       <r>   -9.0721    1.0000 </r>
       <r>   -8.8929    1.0000 </r>
       <r>   -8.8165    1.0000 </r>
       <r>   -8.7865    1.0000 </r>
       <r>   -8.7673    1.0000 </r>
       <r>   -8.6523    1.0000 </r>
       <r>   -8.6240    1.0000 </r>
       <r>   -8.6127    1.0000 </r>
       <r>   -8.5554    1.0000 </r>
       <r>   -8.4371    1.0000 </r>
       <r>   -8.3559    1.0000 </r>
       <r>   -8.2683    1.0000 </r>
       <r>   -8.1752    1.0000 </r>
       <r>   -7.9206    1.0000 </r>
       <r>   -7.8038    1.0000 </r>
       <r>   -7.7736    1.0000 </r>
       <r>   -7.7129    1.0000 </r>
       <r>   -7.5960    1.0000 </r>
       <r>   -7.5702    1.0000 </r>
       <r>   -7.4857    0.9999 </r>
       <r>   -7.4302    0.9999 </r>
       <r>   -7.3833    0.9998 </r>
       <r>   -7.2803    0.9997 </r>
       <r>   -6.9289    0.9974 </r>
       <r>   -6.7209    0.9923 </r>
       <r>   -5.8943    0.8320 </r>
       <r>   -5.5492    0.6375 </r>
       <r>   -5.1569    0.3663 </r>
       <r>   -4.6140    0.0966 </r>
       <r>   -4.5508    0.0788 </r>
       <r>   -0.9917    0.0000 </r>
       <r>   -0.8359    0.0000 </r>
       <r>   -0.3318    0.0000 </r>
       <r>   -0.2218    0.0000 </r>
       <r>    0.1124    0.0000 </r>
      </set>
     </set>
    </set>
   </array>
  </eigenvalues>
  <separator name="orbital magnetization" >
   <v name="MAGDIPOLOUT">      0.00000000      0.00000000      0.00000000</v>
  </separator>
  <dos>
   <i name="efermi">     -5.35017738 </i>
   <total>
    <array>
     <dimension dim="1">gridpoints</dimension>
     <dimension dim="2">spin</dimension>
     <field>energy</field>
     <field>total</field>
     <field>integrated</field>
     <set>
      <set comment="spin 1">
       <r> -22.8936   0.0000   0.0000 </r>
       <r> -22.7903   0.0000   0.0000 </r>
       <r> -22.6869   0.0000   0.0000 </r>
       <r> -22.5836   0.0000   0.0000 </r>
       <r> -22.4802   0.0000   0.0000 </r>
       <r> -22.3769   0.0000   0.0000 </r>
       <r> -22.2735   0.0000   0.0000 </r>
       <r> -22.1701   0.0000   0.0000 </r>
       <r> -22.0668   0.0000   0.0000 </r>
       <r> -21.9634   0.0000   0.0000 </r>
       <r> -21.8601   0.0000   0.0000 </r>
       <r> -21.7567   0.0000   0.0000 </r>
       <r> -21.6534   0.0000   0.0000 </r>
       <r> -21.5500   0.0000   0.0000 </r>
       <r> -21.4467   0.0000   0.0000 </r>
       <r> -21.3433   0.0000   0.0000 </r>
       <r> -21.2400   0.0000   0.0000 </r>
       <r> -21.1366   0.0000   0.0000 </r>
       <r> -21.0333   0.0000   0.0000 </r>
       <r> -20.9299   0.0000   0.0000 </r>
       <r> -20.8266   0.0000   0.0000 </r>
       <r> -20.7232   0.0000   0.0000 </r>
       <r> -20.6198   0.0000   0.0000 </r>
       <r> -20.5165   0.0000   0.0000 </r>
       <r> -20.4131   0.0000   0.0000 </r>
       <r> -20.3098   0.0000   0.0000 </r>
       <r> -20.2064   0.0000   0.0000 </r>
       <r> -20.1031   0.0000   0.0000 </r>
       <r> -19.9997   0.0000   0.0000 </r>
       <r> -19.8964   0.0000   0.0000 </r>
       <r> -19.7930   0.0000   0.0000 </r>
       <r> -19.6897   0.0000   0.0000 </r>
       <r> -19.5863   0.0000   0.0000 </r>
       <r> -19.4830   0.0000   0.0000 </r>
       <r> -19.3796   0.0000   0.0000 </r>
       <r> -19.2763   0.0000   0.0000 </r>
       <r> -19.1729   0.0000   0.0000 </r>
       <r> -19.0695   0.0000   0.0000 </r>
       <r> -18.9662   0.0000   0.0000 </r>
       <r> -18.8628   0.0000   0.0000 </r>
       <r> -18.7595   0.0000   0.0000 </r>
       <r> -18.6561   0.0000   0.0000 </r>
       <r> -18.5528   0.0000   0.0000 </r>
       <r> -18.4494   0.0000   0.0000 </r>
       <r> -18.3461   0.0000   0.0000 </r>
       <r> -18.2427   0.0000   0.0000 </r>
       <r> -18.1394   0.0000   0.0000 </r>
       <r> -18.0360   0.0000   0.0000 </r>
       <r> -17.9327   0.0000   0.0000 </r>
       <r> -17.8293   0.0000   0.0000 </r>
       <r> -17.7260   0.0000   0.0000 </r>
       <r> -17.6226   0.0000   0.0000 </r>
       <r> -17.5192   0.0000   0.0000 </r>
       <r> -17.4159   0.0000   0.0000 </r>
       <r> -17.3125   0.0001   0.0000 </r>
       <r> -17.2092   0.0002   0.0000 </r>
       <r> -17.1058   0.0005   0.0001 </r>
       <r> -17.0025   0.0010   0.0002 </r>
       <r> -16.8991   0.0019   0.0004 </r>
       <r> -16.7958   0.0037   0.0008 </r>
       <r> -16.6924   0.0068   0.0015 </r>
       <r> -16.5891   0.0121   0.0027 </r>
       <r> -16.4857   0.0209   0.0049 </r>
       <r> -16.3824   0.0349   0.0085 </r>
       <r> -16.2790   0.0564   0.0143 </r>
       <r> -16.1757   0.0881   0.0234 </r>
       <r> -16.0723   0.1332   0.0372 </r>
       <r> -15.9689   0.1947   0.0573 </r>
       <r> -15.8656   0.2752   0.0858 </r>
       <r> -15.7622   0.3764   0.1247 </r>
       <r> -15.6589   0.4979   0.1761 </r>
       <r> -15.5555   0.6371   0.2420 </r>
       <r> -15.4522   0.7884   0.3234 </r>
       <r> -15.3488   0.9438   0.4210 </r>
       <r> -15.2455   1.0929   0.5339 </r>
       <r> -15.1421   1.2240   0.6605 </r>
       <r> -15.0388   1.3260   0.7975 </r>
       <r> -14.9354   1.3895   0.9411 </r>
       <r> -14.8321   1.4083   1.0867 </r>
       <r> -14.7287   1.3807   1.2294 </r>
       <r> -14.6254   1.3092   1.3647 </r>
       <r> -14.5220   1.2009   1.4888 </r>
       <r> -14.4186   1.0654   1.5989 </r>
       <r> -14.3153   0.9143   1.6934 </r>
       <r> -14.2119   0.7589   1.7718 </r>
       <r> -14.1086   0.6093   1.8348 </r>
       <r> -14.0052   0.4732   1.8837 </r>
       <r> -13.9019   0.3555   1.9204 </r>
       <r> -13.7985   0.2583   1.9471 </r>
       <r> -13.6952   0.1817   1.9659 </r>
       <r> -13.5918   0.1238   1.9787 </r>
       <r> -13.4885   0.0820   1.9872 </r>
       <r> -13.3851   0.0534   1.9927 </r>
       <r> -13.2818   0.0354   1.9963 </r>
       <r> -13.1784   0.0259   1.9990 </r>
       <r> -13.0751   0.0241   2.0015 </r>
       <r> -12.9717   0.0302   2.0046 </r>
       <r> -12.8683   0.0461   2.0094 </r>
       <r> -12.7650   0.0753   2.0172 </r>
       <r> -12.6616   0.1235   2.0300 </r>
       <r> -12.5583   0.1989   2.0505 </r>
       <r> -12.4549   0.3120   2.0827 </r>
       <r> -12.3516   0.4758   2.1319 </r>
       <r> -12.2482   0.7053   2.2048 </r>
       <r> -12.1449   1.0162   2.3098 </r>
       <r> -12.0415   1.4239   2.4570 </r>
       <r> -11.9382   1.9409   2.6576 </r>
       <r> -11.8348   2.5753   2.9238 </r>
       <r> -11.7315   3.3279   3.2677 </r>
       <r> -11.6281   4.1910   3.7009 </r>
       <r> -11.5248   5.1474   4.2329 </r>
       <r> -11.4214   6.1710   4.8707 </r>
       <r> -11.3180   7.2282   5.6177 </r>
       <r> -11.2147   8.2813   6.4736 </r>
       <r> -11.1113   9.2922   7.4340 </r>
       <r> -11.0080  10.2268   8.4910 </r>
       <r> -10.9046  11.0590   9.6340 </r>
       <r> -10.8013  11.7731  10.8508 </r>
       <r> -10.6979  12.3656  12.1288 </r>
       <r> -10.5946  12.8442  13.4563 </r>
       <r> -10.4912  13.2262  14.8232 </r>
       <r> -10.3879  13.5351  16.2221 </r>
       <r> -10.2845  13.7975  17.6481 </r>
       <r> -10.1812  14.0401  19.0992 </r>
       <r> -10.0778  14.2872  20.5759 </r>
       <r>  -9.9745  14.5601  22.0807 </r>
       <r>  -9.8711  14.8767  23.6183 </r>
       <r>  -9.7677  15.2520  25.1946 </r>
       <r>  -9.6644  15.6978  26.8170 </r>
       <r>  -9.5610  16.2222  28.4936 </r>
       <r>  -9.4577  16.8282  30.2329 </r>
       <r>  -9.3543  17.5110  32.0427 </r>
       <r>  -9.2510  18.2566  33.9296 </r>
       <r>  -9.1476  19.0404  35.8975 </r>
       <r>  -9.0443  19.8282  37.9468 </r>
       <r>  -8.9409  20.5794  40.0737 </r>
       <r>  -8.8376  21.2517  42.2702 </r>
       <r>  -8.7342  21.8075  44.5240 </r>
       <r>  -8.6309  22.2192  46.8205 </r>
       <r>  -8.5275  22.4733  49.1432 </r>
       <r>  -8.4242  22.5704  51.4759 </r>
       <r>  -8.3208  22.5235  53.8038 </r>
       <r>  -8.2174  22.3519  56.1139 </r>
       <r>  -8.1141  22.0754  58.3955 </r>
       <r>  -8.0107  21.7077  60.6390 </r>
       <r>  -7.9074  21.2526  62.8356 </r>
       <r>  -7.8040  20.7035  64.9753 </r>
       <r>  -7.7007  20.0458  67.0471 </r>
       <r>  -7.5973  19.2624  69.0380 </r>
       <r>  -7.4940  18.3399  70.9335 </r>
       <r>  -7.3906  17.2748  72.7189 </r>
       <r>  -7.2873  16.0770  74.3805 </r>
       <r>  -7.1839  14.7713  75.9071 </r>
       <r>  -7.0806  13.3951  77.2916 </r>
       <r>  -6.9772  11.9952  78.5313 </r>
       <r>  -6.8739  10.6214  79.6291 </r>
       <r>  -6.7705   9.3222  80.5926 </r>
       <r>  -6.6671   8.1394  81.4338 </r>
       <r>  -6.5638   7.1051  82.1681 </r>
       <r>  -6.4604   6.2398  82.8130 </r>
       <r>  -6.3571   5.5516  83.3868 </r>
       <r>  -6.2537   5.0373  83.9074 </r>
       <r>  -6.1504   4.6841  84.3916 </r>
       <r>  -6.0470   4.4711  84.8537 </r>
       <r>  -5.9437   4.3727  85.3056 </r>
       <r>  -5.8403   4.3613  85.7563 </r>
       <r>  -5.7370   4.4095  86.2121 </r>
       <r>  -5.6336   4.4925  86.6764 </r>
       <r>  -5.5303   4.5898  87.1508 </r>
       <r>  -5.4269   4.6851  87.6350 </r>
       <r>  -5.3236   4.7660  88.1276 </r>
       <r>  -5.2202   4.8232  88.6261 </r>
       <r>  -5.1168   4.8490  89.1272 </r>
       <r>  -5.0135   4.8364  89.6271 </r>
       <r>  -4.9101   4.7781  90.1209 </r>
       <r>  -4.8068   4.6675  90.6033 </r>
       <r>  -4.7034   4.4988  91.0683 </r>
       <r>  -4.6001   4.2690  91.5095 </r>
       <r>  -4.4967   3.9793  91.9208 </r>
       <r>  -4.3934   3.6356  92.2965 </r>
       <r>  -4.2900   3.2491  92.6323 </r>
       <r>  -4.1867   2.8351  92.9254 </r>
       <r>  -4.0833   2.4116  93.1746 </r>
       <r>  -3.9800   1.9970  93.3810 </r>
       <r>  -3.8766   1.6080  93.5472 </r>
       <r>  -3.7733   1.2579  93.6772 </r>
       <r>  -3.6699   0.9552  93.7759 </r>
       <r>  -3.5665   0.7036  93.8486 </r>
       <r>  -3.4632   0.5026  93.9006 </r>
       <r>  -3.3598   0.3481  93.9365 </r>
       <r>  -3.2565   0.2337  93.9607 </r>
       <r>  -3.1531   0.1524  93.9765 </r>
       <r>  -3.0498   0.0972  93.9865 </r>
       <r>  -2.9464   0.0617  93.9929 </r>
       <r>  -2.8431   0.0412  93.9971 </r>
       <r>  -2.7397   0.0324  94.0005 </r>
       <r>  -2.6364   0.0338  94.0040 </r>
       <r>  -2.5330   0.0455  94.0087 </r>
       <r>  -2.4297   0.0697  94.0159 </r>
       <r>  -2.3263   0.1098  94.0272 </r>
       <r>  -2.2230   0.1712  94.0449 </r>
       <r>  -2.1196   0.2604  94.0718 </r>
       <r>  -2.0162   0.3849  94.1116 </r>
       <r>  -1.9129   0.5521  94.1687 </r>
       <r>  -1.8095   0.7689  94.2481 </r>
       <r>  -1.7062   1.0399  94.3556 </r>
       <r>  -1.6028   1.3668  94.4969 </r>
       <r>  -1.4995   1.7471  94.6774 </r>
       <r>  -1.3961   2.1740  94.9021 </r>
       <r>  -1.2928   2.6359  95.1746 </r>
       <r>  -1.1894   3.1176  95.4968 </r>
       <r>  -1.0861   3.6011  95.8690 </r>
       <r>  -0.9827   4.0669  96.2893 </r>
       <r>  -0.8794   4.4957  96.7539 </r>
       <r>  -0.7760   4.8697  97.2572 </r>
       <r>  -0.6727   5.1729  97.7919 </r>
       <r>  -0.5693   5.3923  98.3492 </r>
       <r>  -0.4659   5.5178  98.9195 </r>
       <r>  -0.3626   5.5429  99.4924 </r>
       <r>  -0.2592   5.4650 100.0572 </r>
       <r>  -0.1559   5.2856 100.6035 </r>
       <r>  -0.0525   5.0114 101.1214 </r>
       <r>   0.0508   4.6538 101.6024 </r>
       <r>   0.1542   4.2289 102.0395 </r>
       <r>   0.2575   3.7568 102.4277 </r>
       <r>   0.3609   3.2596 102.7646 </r>
       <r>   0.4642   2.7598 103.0499 </r>
       <r>   0.5676   2.2783 103.2853 </r>
       <r>   0.6709   1.8324 103.4747 </r>
       <r>   0.7743   1.4349 103.6230 </r>
       <r>   0.8776   1.0933 103.7360 </r>
       <r>   0.9810   0.8102 103.8198 </r>
       <r>   1.0844   0.5836 103.8801 </r>
       <r>   1.1877   0.4084 103.9223 </r>
       <r>   1.2911   0.2776 103.9510 </r>
       <r>   1.3944   0.1832 103.9699 </r>
       <r>   1.4978   0.1174 103.9820 </r>
       <r>   1.6011   0.0729 103.9896 </r>
       <r>   1.7045   0.0440 103.9941 </r>
       <r>   1.8078   0.0257 103.9968 </r>
       <r>   1.9112   0.0146 103.9983 </r>
       <r>   2.0145   0.0080 103.9991 </r>
       <r>   2.1179   0.0043 103.9996 </r>
       <r>   2.2212   0.0022 103.9998 </r>
       <r>   2.3246   0.0011 103.9999 </r>
       <r>   2.4279   0.0005 104.0000 </r>
       <r>   2.5313   0.0002 104.0000 </r>
       <r>   2.6347   0.0001 104.0000 </r>
       <r>   2.7380   0.0000 104.0000 </r>
       <r>   2.8414   0.0000 104.0000 </r>
       <r>   2.9447   0.0000 104.0000 </r>
       <r>   3.0481   0.0000 104.0000 </r>
       <r>   3.1514   0.0000 104.0000 </r>
       <r>   3.2548   0.0000 104.0000 </r>
       <r>   3.3581   0.0000 104.0000 </r>
       <r>   3.4615   0.0000 104.0000 </r>
       <r>   3.5648   0.0000 104.0000 </r>
       <r>   3.6682   0.0000 104.0000 </r>
       <r>   3.7715   0.0000 104.0000 </r>
       <r>   3.8749   0.0000 104.0000 </r>
       <r>   3.9782   0.0000 104.0000 </r>
       <r>   4.0816   0.0000 104.0000 </r>
       <r>   4.1850   0.0000 104.0000 </r>
       <r>   4.2883   0.0000 104.0000 </r>
       <r>   4.3917   0.0000 104.0000 </r>
       <r>   4.4950   0.0000 104.0000 </r>
       <r>   4.5984   0.0000 104.0000 </r>
       <r>   4.7017   0.0000 104.0000 </r>
       <r>   4.8051   0.0000 104.0000 </r>
       <r>   4.9084   0.0000 104.0000 </r>
       <r>   5.0118   0.0000 104.0000 </r>
       <r>   5.1151   0.0000 104.0000 </r>
       <r>   5.2185   0.0000 104.0000 </r>
       <r>   5.3218   0.0000 104.0000 </r>
       <r>   5.4252   0.0000 104.0000 </r>
       <r>   5.5285   0.0000 104.0000 </r>
       <r>   5.6319   0.0000 104.0000 </r>
       <r>   5.7353   0.0000 104.0000 </r>
       <r>   5.8386   0.0000 104.0000 </r>
       <r>   5.9420   0.0000 104.0000 </r>
       <r>   6.0453   0.0000 104.0000 </r>
       <r>   6.1487   0.0000 104.0000 </r>
       <r>   6.2520   0.0000 104.0000 </r>
       <r>   6.3554   0.0000 104.0000 </r>
       <r>   6.4587   0.0000 104.0000 </r>
       <r>   6.5621   0.0000 104.0000 </r>
       <r>   6.6654   0.0000 104.0000 </r>
       <r>   6.7688   0.0000 104.0000 </r>
       <r>   6.8721   0.0000 104.0000 </r>
       <r>   6.9755   0.0000 104.0000 </r>
       <r>   7.0788   0.0000 104.0000 </r>
       <r>   7.1822   0.0000 104.0000 </r>
       <r>   7.2856   0.0000 104.0000 </r>
       <r>   7.3889   0.0000 104.0000 </r>
       <r>   7.4923   0.0000 104.0000 </r>
       <r>   7.5956   0.0000 104.0000 </r>
       <r>   7.6990   0.0000 104.0000 </r>
       <r>   7.8023   0.0000 104.0000 </r>
       <r>   7.9057   0.0000 104.0000 </r>
       <r>   8.0090   0.0000 104.0000 </r>
       <r>   8.1124   0.0000 104.0000 </r>
      </set>
     </set>
    </array>
   </total>
  </dos>
 </calculation>
 <structure name="finalpos" >
  <crystal>
   <varray name="basis" >
    <v>       4.70000000       0.00000000       0.00000000 </v>
    <v>       0.00000000       4.70000000       0.00000000 </v>
    <v>       0.00000000       0.00000000       4.70000000 </v>
   </varray>
   <i name="volume">    103.82300000 </i>
   <varray name="rec_basis" >
    <v>       0.21276596       0.00000000       0.00000000 </v>
    <v>       0.00000000       0.21276596       0.00000000 </v>
    <v>       0.00000000       0.00000000       0.21276596 </v>
   </varray>
  </crystal>
  <varray name="positions" >
   <v>       0.19021436       0.98153163       0.11011500 </v>
   <v>       0.91588284       0.30418866       0.34789172 </v>
   <v>       0.92123095       0.35504594       0.82526076 </v>
   <v>       0.70068599       0.96294631       0.11390836 </v>
   <v>       0.39968073       0.30035227       0.35034333 </v>
   <v>       0.90848954       0.90612394       0.61855898 </v>
   <v>       0.40961741       0.86424412       0.55157516 </v>
   <v>       0.41690857       0.29400401       0.83525124 </v>
  </varray>
  <varray name="velocities" >
   <v>      -0.00028725      -0.00054148      -0.00206054 </v>
   <v>       0.00218462      -0.00091159      -0.00013619 </v>
   <v>      -0.00259757       0.00377048       0.00163217 </v>
   <v>      -0.00074391      -0.00020237       0.00065658 </v>
   <v>       0.00108288      -0.00035180      -0.00048423 </v>
   <v>       0.00203732       0.00065874      -0.00084450 </v>
   <v>       0.00083986      -0.00064323       0.00024370 </v>
   <v>      -0.00259721      -0.00174946       0.00091881 </v>
  </varray>
 </structure>
</modeling>
