   50   50    1    1
  0.2517325E+02  0.1079700E-08  0.1079700E-08  0.1079700E-08  0.5000000E-14
   423.000000000000     
  CAR 
 Hg                                      
  600    1  316
