       N       E                     dE             d eps       ncg     rms          rms(c)
RMM:   1    -0.514560573315E+05   -0.51456E+05   -0.13169E+05   316   0.781E+02
RMM:   2    -0.527656755389E+05   -0.13096E+04   -0.23552E+04   316   0.234E+02
RMM:   3    -0.529900570826E+05   -0.22438E+03   -0.41261E+03   316   0.116E+02
RMM:   4    -0.531239491511E+05   -0.13389E+03   -0.15259E+03   316   0.781E+01
RMM:   5    -0.532150078487E+05   -0.91059E+02   -0.94443E+02   741   0.443E+01
RMM:   6    -0.532325412870E+05   -0.17533E+02   -0.20957E+02   898   0.136E+01
RMM:   7    -0.532353272484E+05   -0.27860E+01   -0.42986E+01   721   0.429E+00    0.845E+00
RMM:   8    -0.532326964177E+05    0.26308E+01   -0.15892E+01   697   0.523E+00    0.235E+00
RMM:   9    -0.532326234710E+05    0.72947E-01   -0.26559E+00   702   0.257E+00    0.657E-01
RMM:  10    -0.532326396761E+05   -0.16205E-01   -0.32064E-01   694   0.888E-01    0.358E-01
RMM:  11    -0.532326387202E+05    0.95591E-03   -0.49341E-02   690   0.364E-01    0.898E-02
RMM:  12    -0.532326385045E+05    0.21567E-03   -0.65914E-03   692   0.968E-02    0.548E-02
RMM:  13    -0.532326384716E+05    0.32901E-04   -0.15794E-03   599   0.566E-02
   1 F= -.53232638E+05 E0= -.53232641E+05  d E =0.638724E-02
