       N       E                     dE             d eps       ncg     rms          rms(c)
RMM:   1    -0.514507058760E+05   -0.51451E+05   -0.13177E+05   316   0.780E+02
RMM:   2    -0.527604338595E+05   -0.13097E+04   -0.23675E+04   316   0.234E+02
RMM:   3    -0.529743353776E+05   -0.21390E+03   -0.41254E+03   316   0.116E+02
RMM:   4    -0.531145169975E+05   -0.14018E+03   -0.15769E+03   316   0.784E+01
RMM:   5    -0.531789029672E+05   -0.64386E+02   -0.67142E+02   316   0.452E+01
RMM:   6    -0.532264453365E+05   -0.47542E+02   -0.47991E+02   720   0.309E+01
RMM:   7    -0.532330334403E+05   -0.65881E+01   -0.94371E+01   762   0.919E+00    0.871E+00
RMM:   8    -0.532322794396E+05    0.75400E+00   -0.37182E+01   697   0.816E+00    0.265E+00
RMM:   9    -0.532327283040E+05   -0.44886E+00   -0.88476E+00   702   0.383E+00    0.129E+00
RMM:  10    -0.532327148450E+05    0.13459E-01   -0.69686E-01   695   0.120E+00    0.550E-01
RMM:  11    -0.532327089538E+05    0.58912E-02   -0.18550E-01   693   0.501E-01    0.247E-01
RMM:  12    -0.532327075118E+05    0.14420E-02   -0.34613E-02   691   0.226E-01    0.756E-02
RMM:  13    -0.532327075990E+05   -0.87220E-04   -0.65477E-03   688   0.823E-02
