 vasp.4.4.4 10Jan99
 running on    4 nodes
 distr:  one band on    1 nodes,    4 groups


--------------------------------------------------------------------------------------------------------


 INCAR:
 POTCAR:   Hg: s-lok R=3.1 Ra=2.8 real-opt[3.2-6.2
 POTCAR:   Hg: s-lok R=3.1 Ra=2.8 real-opt[3.2-6.2
   VRHFIN =Hg: 10s 2d fine mesh  CA                                             
   LEXCH  = CA                                                                  
   EATOM  =     0.0000 eV,  116.0819 Ry                                         
                                                                                
   TITEL  = US Hg, faked                                                        
   LULTRA =        T    use ultrasoft PP ?                                      
   IUNSCR =        1    unscreen: 0-lin 1-nonlin 2-no                           
   RPACOR =   -1.000    partial core radius                                     
   POMASS =  200.590; ZVAL   =   12.000    mass and valenz                      
   RCORE  =    3.050    outmost cutoff radius                                   
   RWIGS  =    3.050; RWIGS  =    1.614    wigner-seitz radius (au A)           
   ENMAX  =  158.977; ENMIN  =  119.233 eV                                      
   EAUG   =  265.444                                                            
                                                                                
   RCLOC  =    2.106    cutoff for local pot                                    
   LCOR   =        T    correct aug charges                                     
   RMAX   =    3.657    core radius for proj-oper                               
   QCUT   =   -3.000; QGAM   =    6.837    optimization parameters              
                                                                                
   Description                                                                  
     l     E      TYP  RCUT    TYP  RCUT                                        
     2   .000      7  2.470    23  3.050                                        
     2   .000      7  2.470    23  3.050                                        
     0   .000     15  2.720    23  2.720                                        
     1  -.200     15  2.720    23  3.050                                        
END of PSCTR-controll parameters                                                
  local pseudopotential read in
  atomic valenz-charges read in
  non local Contribution for L= 2  read in
    real space projection operators read in
  non local Contribution for L= 2  read in
    real space projection operators read in
  non local Contribution for L= 1  read in
    real space projection operators read in
    augmentation charges read in
 
   number of l-projection  operators is LMAX  = 3
   number of lm-projection operators is LMMAX = 13
 
 Hg: s-lok R=3.1 Ra=2.8 real-opt[3.2-6.2:
 energy of atom  1       EATOM=    0.0000
 
 EXHCAR: internal setup
 exchange correlation table for  LEXCH =        2
   RHO(1)=    0.500       N(1)  =     2000
   RHO(2)=  100.500       N(2)  =     4000
 
 POSCAR: Hg: 50 Atome emty-core PP               
  positions in direct lattice
  No initial velocities read in
 


--------------------------------------------------------------------------------------------------------


 ion  position               nearest neighbor table
   1  0.300  0.973  0.680-  35 2.86  38 2.89   3 3.00  50 3.00  19 3.11   2 3.31  49 3.31   4 3.39
                            44 3.59  33 3.64  26 3.69
   2  0.100  0.867  0.887-   5 2.67  29 2.90  37 3.02  30 3.07  47 3.07   1 3.31  19 3.36  49 3.36
                             8 3.47  48 3.49   3 3.49  13 3.78
   3  0.423  0.858  0.901-   1 3.00  47 3.04  19 3.08  30 3.10  28 3.13   4 3.28  16 3.36  31 3.42
                             2 3.49  18 3.50  44 3.70
   4  0.614  0.945  0.681-  35 2.89  28 3.05  50 3.10  48 3.14  45 3.19   3 3.28   8 3.34   1 3.39
                            44 3.41  20 3.53  39 3.54
   5  0.971  0.656  0.884-  12 2.42   2 2.67  13 3.17  47 3.21  28 3.39  25 3.42  45 3.67  49 3.67
                            14 3.69  29 3.78  41 3.85
   6  0.352  0.342  0.113-  42 2.68  14 3.24  19 3.25  31 3.27  27 3.29  15 3.33  23 3.46  13 3.62
                            10 3.65  34 3.70   9 3.72
   7  0.323  0.435  0.683-  47 2.76  14 2.90  22 2.95   9 3.04  50 3.06  44 3.13  15 3.15  27 3.53
                            38 3.59  11 3.82
   8  0.801  0.978  0.925-  29 2.62  10 2.93  37 2.98  48 3.09  16 3.09  36 3.22   4 3.34  28 3.35
                             2 3.47  17 3.60
   9  0.356  0.279  0.452-  27 2.68  50 3.02  43 3.03   7 3.04  35 3.14  34 3.51  42 3.51  38 3.54
                             6 3.72  33 3.77
  10  0.611  0.151  0.009-  36 2.77  34 2.87  17 2.88   8 2.93  16 3.05  18 3.57  19 3.59   6 3.65
                            15 3.67  23 3.75  50 3.77
  11  0.665  0.522  0.668-  28 2.74  15 2.87  45 2.88  41 2.97  44 2.98  43 3.21  40 3.22  39 3.35
                            36 3.52   7 3.82
  12  0.895  0.464  0.971-   5 2.42  36 2.99  25 3.07  14 3.15  17 3.18  23 3.30  21 3.35  13 3.46
                            41 3.56
  13  0.143  0.606  0.116-  30 3.01  21 3.03  31 3.13   5 3.17  46 3.19  27 3.30  47 3.42  12 3.46
                            14 3.56   6 3.62   2 3.78  25 3.81
  14  0.158  0.371  0.886-   7 2.90  37 2.94  12 3.15  47 3.18  19 3.22   6 3.24  38 3.31  13 3.56
                             5 3.69  41 3.73  42 3.74  22 3.81
  15  0.529  0.458  0.888-  11 2.87  23 3.05   7 3.15  28 3.18   6 3.33  31 3.36  36 3.37  47 3.56
                            50 3.61  10 3.67
  16  0.624  0.899  0.135-  18 2.82  10 3.05   8 3.09  32 3.12  25 3.17   3 3.36  20 3.43  34 3.44
                            31 3.53  29 3.62  28 3.83
  17  0.829  0.231  0.140-  34 2.81  10 2.88  21 3.09  12 3.18  23 3.24  36 3.37  37 3.38  42 3.50
                            24 3.50  29 3.58   8 3.60
  18  0.388  0.992  0.194-  30 2.16  16 2.82  35 3.10  26 3.12  19 3.25  34 3.30   3 3.50  10 3.57
                            33 3.71  42 3.74
  19  0.290  0.108  0.934-  37 2.85   3 3.08   1 3.11  14 3.22  18 3.25   6 3.25   2 3.36  50 3.37
                            30 3.41  38 3.57  10 3.59  42 3.62
  20  0.778  0.980  0.401-  48 3.06  34 3.18  32 3.27  24 3.30  39 3.33  45 3.39  16 3.43   4 3.53
                            35 3.53  46 3.58  33 3.70  29 3.77
  21  0.978  0.438  0.269-  40 2.54  42 2.88  24 2.95  13 3.03  17 3.09  12 3.35  46 3.37  25 3.38
                            27 3.57  22 3.57  23 3.86
  22  0.086  0.516  0.572-  41 2.46  49 2.93   7 2.95  27 3.12  21 3.57  47 3.58  46 3.66  40 3.68
                            24 3.76  14 3.81  38 3.85  45 3.86
  23  0.644  0.469  0.146-  25 2.67  31 2.93  43 2.97  15 3.05  40 3.19  17 3.24  12 3.30  34 3.37
                             6 3.46  10 3.75  21 3.86  32 3.87
  24  0.966  0.219  0.433-  33 2.64  21 2.95  38 2.99  41 3.07  42 3.13  39 3.19  20 3.30  17 3.50
                            40 3.58  48 3.64  22 3.76
  25  0.797  0.663  0.149-  23 2.67  12 3.07  46 3.08  16 3.17  40 3.23  32 3.36  29 3.37  21 3.38
                             5 3.42  28 3.71  13 3.81
  26  0.289  0.800  0.385-  30 2.88  35 3.06  33 3.09  18 3.12  49 3.18  44 3.21  27 3.23  46 3.24
                            32 3.39  31 3.67   1 3.69
  27  0.288  0.502  0.365-   9 2.68  43 2.78  22 3.12  26 3.23   6 3.29  13 3.30  31 3.34   7 3.53
                            21 3.57  42 3.64  44 3.71
  28  0.666  0.714  0.836-  11 2.74  45 3.00   4 3.05   3 3.13  15 3.18   8 3.35   5 3.39  44 3.41
                            25 3.71  16 3.83
  29  0.956  0.928  0.105-   8 2.62   2 2.90  37 3.11  46 3.22  30 3.25  25 3.37  17 3.58  16 3.62
                            20 3.77   5 3.78  33 3.82
  30  0.249  0.863  0.129-  18 2.16  26 2.88  13 3.01   2 3.07   3 3.10  31 3.15  29 3.25  19 3.41
                            33 3.74  46 3.74
  31  0.431  0.635  0.125-  23 2.93  13 3.13  30 3.15   6 3.27  27 3.34  15 3.36   3 3.42  32 3.43
                            16 3.53  43 3.61  26 3.67  47 3.73
  32  0.596  0.740  0.375-  43 2.85  44 3.02  16 3.12  20 3.27  45 3.31  40 3.36  25 3.36  26 3.39
                            35 3.41  31 3.43  23 3.87
  33  0.117  0.029  0.403-  24 2.64  26 3.09  42 3.13  38 3.14  49 3.33  46 3.43   1 3.64  48 3.64
                            20 3.70  18 3.71  30 3.74   9 3.77  35 3.78  29 3.82
  34  0.611  0.186  0.273-  17 2.81  10 2.87  20 3.18  39 3.22  18 3.30  35 3.30  23 3.37  16 3.44
                             9 3.51  43 3.57   6 3.70
  35  0.460  0.008  0.471-   1 2.86   4 2.89  26 3.06  18 3.10  50 3.12   9 3.14  34 3.30  32 3.41
                            20 3.53  39 3.66  33 3.78  44 3.79
  36  0.765  0.261  0.835-  10 2.77  41 2.93  12 2.99  39 3.13   8 3.22  37 3.28  15 3.37  17 3.37
                            11 3.52  50 3.62
  37  0.028  0.135  0.918-  19 2.85  14 2.94   8 2.98   2 3.02  38 3.04  29 3.11  36 3.28  17 3.38
                            42 3.55  48 3.58
  38  0.123  0.171  0.656-   1 2.89  24 2.99  37 3.04  33 3.14  48 3.19  14 3.31  41 3.36   9 3.54
                            19 3.57   7 3.59  50 3.77  22 3.85
  39  0.697  0.235  0.554-  50 2.91  41 3.03  36 3.13  24 3.19  34 3.22  20 3.33  11 3.35  40 3.46
                             4 3.54  43 3.56  35 3.66  48 3.74
  40  0.793  0.499  0.400-  21 2.54  43 2.71  41 3.16  23 3.19  11 3.22  25 3.23  45 3.34  32 3.36
                            39 3.46  46 3.51  24 3.58  22 3.68
  41  0.908  0.396  0.648-  22 2.46  36 2.93  11 2.97  39 3.03  24 3.07  40 3.16  38 3.36  12 3.56
                            14 3.73   5 3.85
  42  0.146  0.240  0.206-   6 2.68  21 2.88  33 3.13  24 3.13  17 3.50   9 3.51  37 3.55  19 3.62
                            27 3.64  14 3.74  18 3.74
  43  0.542  0.483  0.401-  40 2.71  27 2.78  32 2.85  23 2.97   9 3.03  11 3.21  44 3.27  39 3.56
                            34 3.57  31 3.61
  44  0.450  0.685  0.607-  11 2.98  32 3.02   7 3.13  47 3.15  26 3.21  43 3.27   4 3.41  28 3.41
                             1 3.59   3 3.70  27 3.71  35 3.79
  45  0.807  0.736  0.597-  48 2.85  11 2.88  49 2.95  28 3.00   4 3.19  32 3.31  40 3.34  20 3.39
                            46 3.52   5 3.67  22 3.86
  46  0.999  0.742  0.335-  49 2.89  25 3.08  13 3.19  29 3.22  26 3.24  21 3.37  33 3.43  40 3.51
                            45 3.52  20 3.58  22 3.66  30 3.74
  47  0.261  0.640  0.824-   7 2.76   3 3.04   2 3.07  44 3.15  14 3.18   5 3.21  13 3.42  15 3.56
                            22 3.58  49 3.61  31 3.73
  48  0.902  0.975  0.656-  45 2.85  49 2.87  20 3.06   8 3.09   4 3.14  38 3.19   2 3.49  37 3.58
                            24 3.64  33 3.64  39 3.74
  49  0.075  0.786  0.587-  48 2.87  46 2.89  22 2.93  45 2.95  26 3.18   1 3.31  33 3.33   2 3.36
                            47 3.61   5 3.67
  50  0.469  0.193  0.693-  39 2.91   1 3.00   9 3.02   7 3.06   4 3.10  35 3.12  19 3.37  15 3.61
                            36 3.62  38 3.77  10 3.77
 

IMPORTANT INFORMATION: All symmetrisations will be switched off!
NOSYMM: (Re-)initialisation of all symmetry stuff for point group C_1.

 
 
 KPOINTS: K dimer                                 
  k-points in cartesian coordinates


--------------------------------------------------------------------------------------------------------




 Dimension of arrays:
   k-Points           NKPTS =     1   number of bands    NBANDS=   316
   number of dos      NEDOS =   301   number of ions     NIONS =    50
   non local maximal  LDIM  =     3   non local SUM 2l+1 LMDIM =    13
   total plane-waves  NPLWV = 27000
   max r-space proj   IRMAX =   671   max aug-charges    IRDMAX=  1851
   dimension x,y,z NGX =    30 NGY =   30 NGZ =   30
   dimension x,y,z NGXF=    48 NGYF=   48 NGZF=   48
   support grid    NGXF=    48 NGYF=   48 NGZF=   48

 NGX,Y,Z   is equivalent  to a cutoff of   4.62,  4.62,  4.62 a.u.
 NGXF,Y,Z  is equivalent  to a cutoff of   7.39,  7.39,  7.39 a.u.


 I would recommend the setting:
   dimension x,y,z NGX =    31 NGY =   31 NGZ =   31

 ----------------------------------------------------------------------------- 
|                                                                             |
|           W    W    AA    RRRRR   N    N  II  N    N   GGGG   !!!           |
|           W    W   A  A   R    R  NN   N  II  NN   N  G    G  !!!           |
|           W    W  A    A  R    R  N N  N  II  N N  N  G       !!!           |
|           W WW W  AAAAAA  RRRRR   N  N N  II  N  N N  G  GGG   !            |
|           WW  WW  A    A  R   R   N   NN  II  N   NN  G    G                |
|           W    W  A    A  R    R  N    N  II  N    N   GGGG   !!!           |
|                                                                             |
|      Your FFT grids (NGX,NGY,NGZ) are not sufficient for an accurate        |
|      calculation.                                                           |
|      The results might be wrong                                             |
|      good settings for NGX NGY and  NGZ are                                 |
|                        31  31  and  31                                      |
|     Mind: This setting results in a small but reasonable wrap arround error |
|     It is also necessary to adjust this  values to the FFT routines you use |
|                                                                             |
 ----------------------------------------------------------------------------- 

 SYSTEM =  Hg                                      
 POSCAR =  Hg: 50 Atome emty-core PP               

 Startparameter for this run:
   NWRITE =      2;   LPETIM=F    write-flag & timer
   PREC   = medium    medium, high low
   ISTART =      0    job   : 0-new  1-cont  2-samecut
   ICHARG =      2    charge: 1-file 2-atom 10-const
   ISPIN  =      1    spin polarized calculation?
   INIWAV =      1    electr: 0-lowe 1-rand  2-diag

 Electronic Relaxation 1
   ENCUT  =  140.0 eV  10.29 Ry    3.21 a.u.  10.42 10.42 10.42*2*pi/ulx,y,z
   ENINI  =  140.0     initial cutoff
   ENAUG  =  265.4 eV  augmentation charge cutoff
   NELM   =     13;   NELMIN= 3; NELMDL= 7     # of ELM steps 
   EDIFF  = 0.1E-03   stopping-criterion for ELM
   LREAL  =      T    real-space projection
   LCOMPAT=      F    compatible to vasp.3.2
   ROPT   =    0.00000
 Ionic relaxation
   EDIFFG = 0.1E-02   stopping-criterion for IOM
   NSW    =      0    number of steps for IOM
   NBLOCK =      1;   KBLOCK =      1    inner block; outer block 
   IBRION =     -1    ionic relax: 0-MD 1-quasi-New 2-CG
   ISIF   =      2    stress and relaxation
   IWAVPR =     10    prediction:  0-non 1-charg 2-wave 3-comb
   ISYM   =      0    0-nonsym 1-usesym 2-fastsym
   LCORR  =      T    Harris-Foulkes like correction to forces

   POTIM  =   5.00    time-step for ionic-motion
   TEIN   =    0.0    initial temperature
   TEBEG  =  423.0;   TEEND  = 423.0 temperature during run
   SMASS  =   0.50    Nose mass-parameter (am)
   estimated Nose-frequenzy (Omega)   =  0.73E+14 period in steps = 17.23 mass=   0.444E-27a.u.
   NPACO  =    256;   APACO  = 10.0  distance and # of slots for P.C.
   PSTRESS=    0.0 pullay stress

  Mass of Ions in am
   POMASS = 200.59
  Ionic Valenz
   ZVAL   =  12.00
  Atomic Wigner-Seitz radii
   RWIGS  =  -1.00
   NELECT =     600.0000    total number of electrons
   NUPDOWN=      -1.0000    fix difference up-down

 DOS related values:
   EMIN   = -15.00;   EMAX   =  0.00  energy-range for DOS
   ISMEAR =     1;   SIGMA  =   0.10  broadening in eV -4-tet -1-fermi 0-gaus

 Electronic relaxation 2 (details)
   IALGO  =     48    algorithm
   LDIAG  =      T    sub-space diagonalisation
   IMIX   =      4    mixing-type and parameters
     AMIX     =   0.80;   BMIX     =  2.50
     AMIX_MAG =   3.20;   BMIX_MAG =  2.50
     AMIN     =   0.10
     WC   =  1000.;   INIMIX=   1;  MIXPRE=   1

 Intra band minimization:
   WEIMIN = 0.0000     energy-eigenvalue tresh-hold
   EBREAK =  0.79E-07  absolut break condition
   DEPER  =   0.30     relativ break condition  

   TIME   =   0.10     timestep for ELM

  volume/ion in A,a.u.               =      25.17       169.88
  Fermi-wavevector in a.u.,eV,Ry     =   1.278857 22.252008  1.635476
 Write flags
   LWAVE  =      F    write WAVECAR
   LCHARG =      F    write CHGCAR
   LVTOT  =      F    write LOCPOT, local potential
   LELF   =      F    write electronic localiz. function (ELF)
   LORBIT =      0    0 simple, 1 ext, 2 COOP (PROOUT)



--------------------------------------------------------------------------------------------------------


 Static calculation
 charge density will be updated during run
 non-spin polarized calculation
 RMM-DIIS sequential band-by-band
 performe sub-space diagonalisation
    before iterative eigenvector-optimisation
 modified Broyden-mixing scheme, WC =     1000.0
 initial mixing is a Kerker type mixing with AMIX =  0.8000 and BMIX =      2.5000
 Hartree-type preconditioning will be used
 using additional bands  16
 real space projection scheme for non local part
 calculate Harris-corrections to forces   (improved forces if not selfconsistent)
 use of overlap-Matrix (Vanderbilt PP)
 Methfessel and Paxton  Order N= 1 SIGMA  =   0.10


--------------------------------------------------------------------------------------------------------


  energy-cutoff  :      140.00
  volume of cell :     1258.66
      direct lattice vectors                 reciprocal lattice vectors
    10.797000000  0.000000000  0.000000000     0.092618320  0.000000000  0.000000000
     0.000000000 10.797000000  0.000000000     0.000000000  0.092618320  0.000000000
     0.000000000  0.000000000 10.797000000     0.000000000  0.000000000  0.092618320

  length of vectors
    10.797000000 10.797000000 10.797000000     0.092618320  0.092618320  0.092618320


 
 k-points in units of 2pi/SCALE and weight: K dimer                                 
   0.00000000  0.00000000  0.00000000       1.000
 
 k-points in reciprocal lattice and weights: K dimer                                 
   0.00000000  0.00000000  0.00000000       1.000
 
 position of ions in fractional coordinates (direct lattice) 
   0.30038700  0.97256200  0.67990100
   0.10039900  0.86661800  0.88658600
   0.42324900  0.85784400  0.90079000
   0.61355400  0.94454300  0.68085300
   0.97062700  0.65631500  0.88409500
   0.35185700  0.34241900  0.11277200
   0.32256100  0.43533000  0.68330900
   0.80125700  0.97793800  0.92463100
   0.35561300  0.27920800  0.45175400
   0.61084300  0.15115600  0.00913500
   0.66497800  0.52222700  0.66841500
   0.89504800  0.46396300  0.97109200
   0.14344200  0.60556200  0.11626200
   0.15832600  0.37085300  0.88569300
   0.52914500  0.45790500  0.88785100
   0.62384600  0.89889200  0.13545600
   0.82879500  0.23141000  0.13957100
   0.38764900  0.99248300  0.19400400
   0.29019600  0.10818400  0.93377000
   0.77819100  0.98028900  0.40100800
   0.97838300  0.43760100  0.26907000
   0.08608600  0.51554300  0.57157900
   0.64430500  0.46853800  0.14563000
   0.96627500  0.21916200  0.43302800
   0.79705900  0.66281100  0.14947100
   0.28851000  0.79993800  0.38522900
   0.28803000  0.50167000  0.36481300
   0.66572800  0.71361500  0.83563300
   0.95610600  0.92757300  0.10475300
   0.24943400  0.86349100  0.12894200
   0.43130600  0.63485200  0.12498600
   0.59624400  0.73994800  0.37490800
   0.11745300  0.02929100  0.40252400
   0.61058700  0.18556100  0.27315200
   0.46013900  0.00811500  0.47108400
   0.76472100  0.26056500  0.83528500
   0.02799800  0.13452100  0.91821500
   0.12293200  0.17109200  0.65611800
   0.69721500  0.23532000  0.55431300
   0.79251400  0.49926300  0.39981900
   0.90812800  0.39557000  0.64834600
   0.14587800  0.24022400  0.20608500
   0.54199300  0.48257200  0.40104500
   0.45001100  0.68462000  0.60661600
   0.80659700  0.73644800  0.59741700
   0.99875600  0.74226300  0.33461700
   0.26139900  0.64015800  0.82418200
   0.90173500  0.97529800  0.65618700
   0.07524800  0.78581800  0.58743700
   0.46926700  0.19285500  0.69256700
 
 position of ions in cartesian coordinates  (Angst):
   3.24327844 10.50075191  7.34089110
   1.08400800  9.35687455  9.57246904
   4.56981945  9.26214167  9.72582963
   6.62454254 10.19823077  7.35116984
  10.47985972  7.08623305  9.54557372
   3.79900003  3.69709794  1.21759928
   3.48269112  4.70025801  7.37768727
   8.65117183 10.55879659  9.98324091
   3.83955356  3.01460878  4.87758794
   6.59527187  1.63203133  0.09863060
   7.17976747  5.63848492  7.21687676
   9.66383326  5.00940851 10.48488032
   1.54874327  6.53825291  1.25528081
   1.70944582  4.00409984  9.56282732
   5.71317856  4.94400028  9.58612725
   6.73566526  9.70533692  1.46251843
   8.94849961  2.49853377  1.50694809
   4.18544625 10.71583895  2.09466119
   3.13324621  1.16806265 10.08191469
   8.40212823 10.58418033  4.32968338
  10.56360125  4.72477800  2.90514879
   0.92947054  5.56631777  6.17133846
   6.95656109  5.05880479  1.57236711
  10.43287118  2.36629211  4.67540332
   8.60584602  7.15637037  1.61383839
   3.11504247  8.63693059  4.15931751
   3.10985991  5.41653099  3.93888596
   7.18786522  7.70490115  9.02232950
  10.32307648 10.01500568  1.13101814
   2.69313890  9.32311233  1.39218677
   4.65681088  6.85449704  1.34947384
   6.43764647  7.98921856  4.04788168
   1.26814004  0.31625493  4.34605163
   6.59250784  2.00350212  2.94922214
   4.96812078  0.08761765  5.08629395
   8.25669264  2.81332030  9.01857214
   0.30229441  1.45242324  9.91396736
   1.32729680  1.84728032  7.08410605
   7.52783035  2.54075004  5.98491746
   8.55677366  5.39054261  4.31684574
   9.80505802  4.27096929  7.00019176
   1.57504477  2.59369853  2.22509975
   5.85189842  5.21032988  4.33008287
   4.85876877  7.39184214  6.54963295
   8.70882781  7.95142906  6.45031135
  10.78356853  8.01421361  3.61285975
   2.82232500  6.91178593  8.89869305
   9.73603280 10.53029251  7.08485104
   0.81245266  8.48447695  6.34255729
   5.06667580  2.08225544  7.47764590
 


--------------------------------------------------------------------------------------------------------


 k-point  1 :  0.00000.00000.0000  plane waves:   4729

 maximum and minimum number of plane-waves per node :   4729  4729

 maximum number of plane-waves:   4729
 maximal index in each direction: 
   IXMAX= 10   IYMAX= 10   IZMAX= 10
   IXMIN=-10   IYMIN=-10   IZMIN=-10

 WARNING: wrap around error must be expected set NGX to  42
 WARNING: wrap around error must be expected set NGY to  42
 WARNING: wrap around error must be expected set NGZ to  42

 real space projection operators:
  total allocation   :   3155.95 KBytes
  max/ min on nodes  :   3155.95   3155.95

 For storing wavefunctions   23.91 MBYTES are necessary
 For predicting wavefunctions   54.98 MBYTES are necessary
Broyden mixing: mesh for mixing (old mesh)
   NGX = 21   NGY = 21   NGZ = 21
  (NGX  = 48   NGY  = 48   NGZ  = 48)
 gives a total of   9261 points
 Initial charge density was supplied:
 charge density of overlapping atoms calculated
 total number of electrons:            600.0000000
 keeping initial charge density in first step


--------------------------------------------------------------------------------------------------------


 Maximum index for non-local projection operator  639
 Maximum index for augmentation-charges  416 (set IRDMAX)


--------------------------------------------------------------------------------------------------------


 First call to EWALD:  gamma=   0.164
 Maximum number of real-space cells 3x 3x 3
 Maximum number of reciprocal cells 3x 3x 3

    FEWALD:  VPU time    0.17: CPU time    0.17


----------------------------------------- Iteration    1(   1)  ---------------------------------------


    POTLOK:  VPU time    0.11: CPU time    0.11
    SETDIJ:  VPU time    0.09: CPU time    0.09
    EDDIAG:  VPU time   10.95: CPU time   11.44
  RMM-DIIS:  VPU time    6.58: CPU time    6.61
    ORTHCH:  VPU time    4.16: CPU time    4.71
    DOS   :  VPU time    0.00: CPU time    0.00
    ------------------------------------------
      LOOP:  VPU time   21.93: CPU time   23.01
 eigenvalue-minimisations  :   316
 total energy-change (2. order) :-0.5145606E+05  (-0.1316896E+05)
 total number of electrons:            600.0000000
 number of augment-electrons   :       600.00000

 Energy of electron-ion system
  alpha Z + extp PSCENC =   0.901106985828E+04
  Ewald energy   TEWEN  =  -0.500645082589E+05
  -1/2 hartree   DENC   =  -0.891293658916E+04
  -V(xc)+E(xc)   XCENC  =   0.239206390177E+04
  PAW double counting   =   0.000000000000E+00  0.000000000000E+00
  Entropy T*S    EENTRO =   0.632270113581E-02
  eigenvalues    EBANDS =  -0.388175256622E+04
  atomic energy  EATOM  =   0.000000000000E+00
  ---------------------------------------------------
  free energy    TOTEN  =  -0.514560573315E+05

 energy without entropy=  -0.514560636542E+05  energy(sigma->0) = -0.514560594391E+05


--------------------------------------------------------------------------------------------------------




----------------------------------------- Iteration    1(   2)  ---------------------------------------


    EDDIAG:  VPU time   11.67: CPU time   11.99
  RMM-DIIS:  VPU time    7.69: CPU time    8.03
    ORTHCH:  VPU time    4.17: CPU time    4.43
    DOS   :  VPU time    0.00: CPU time    0.00
    ------------------------------------------
      LOOP:  VPU time   23.58: CPU time   24.51
 eigenvalue-minimisations  :   316
 total energy-change (2. order) :-0.1309618E+04  (-0.2355188E+04)
 total number of electrons:            600.0000000
 number of augment-electrons   :       600.00000

 Energy of electron-ion system
  alpha Z + extp PSCENC =   0.901106985828E+04
  Ewald energy   TEWEN  =  -0.500645082589E+05
  -1/2 hartree   DENC   =  -0.891293658916E+04
  -V(xc)+E(xc)   XCENC  =   0.239206390177E+04
  PAW double counting   =   0.000000000000E+00  0.000000000000E+00
  Entropy T*S    EENTRO =  -0.238041564228E-01
  eigenvalues    EBANDS =  -0.519134064675E+04
  atomic energy  EATOM  =   0.000000000000E+00
  ---------------------------------------------------
  free energy    TOTEN  =  -0.527656755389E+05

 energy without entropy=  -0.527656517347E+05  energy(sigma->0) = -0.527656676042E+05


--------------------------------------------------------------------------------------------------------




----------------------------------------- Iteration    1(   3)  ---------------------------------------


    EDDIAG:  VPU time   12.34: CPU time   13.07
  RMM-DIIS:  VPU time    8.34: CPU time    8.99
    ORTHCH:  VPU time    4.48: CPU time    4.80
    DOS   :  VPU time    0.00: CPU time    0.00
    ------------------------------------------
      LOOP:  VPU time   25.20: CPU time   26.90
 eigenvalue-minimisations  :   316
 total energy-change (2. order) :-0.2243815E+03  (-0.4126140E+03)
 total number of electrons:            600.0000000
 number of augment-electrons   :       600.00000

 Energy of electron-ion system
  alpha Z + extp PSCENC =   0.901106985828E+04
  Ewald energy   TEWEN  =  -0.500645082589E+05
  -1/2 hartree   DENC   =  -0.891293658916E+04
  -V(xc)+E(xc)   XCENC  =   0.239206390177E+04
  PAW double counting   =   0.000000000000E+00  0.000000000000E+00
  Entropy T*S    EENTRO =   0.285188923871E-01
  eigenvalues    EBANDS =  -0.541577451353E+04
  atomic energy  EATOM  =   0.000000000000E+00
  ---------------------------------------------------
  free energy    TOTEN  =  -0.529900570826E+05

 energy without entropy=  -0.529900856015E+05  energy(sigma->0) = -0.529900665889E+05


--------------------------------------------------------------------------------------------------------




----------------------------------------- Iteration    1(   4)  ---------------------------------------


    EDDIAG:  VPU time   11.91: CPU time   12.32
  RMM-DIIS:  VPU time    7.65: CPU time    8.30
    ORTHCH:  VPU time    4.18: CPU time    4.24
    DOS   :  VPU time    0.00: CPU time    0.00
    ------------------------------------------
      LOOP:  VPU time   23.79: CPU time   24.96
 eigenvalue-minimisations  :   316
 total energy-change (2. order) :-0.1338921E+03  (-0.1525883E+03)
 total number of electrons:            600.0000000
 number of augment-electrons   :       600.00000

 Energy of electron-ion system
  alpha Z + extp PSCENC =   0.901106985828E+04
  Ewald energy   TEWEN  =  -0.500645082589E+05
  -1/2 hartree   DENC   =  -0.891293658916E+04
  -V(xc)+E(xc)   XCENC  =   0.239206390177E+04
  PAW double counting   =   0.000000000000E+00  0.000000000000E+00
  Entropy T*S    EENTRO =   0.260705783288E-01
  eigenvalues    EBANDS =  -0.554966413372E+04
  atomic energy  EATOM  =   0.000000000000E+00
  ---------------------------------------------------
  free energy    TOTEN  =  -0.531239491511E+05

 energy without entropy=  -0.531239752217E+05  energy(sigma->0) = -0.531239578413E+05


--------------------------------------------------------------------------------------------------------




----------------------------------------- Iteration    1(   5)  ---------------------------------------


    EDDIAG:  VPU time   10.09: CPU time   10.13
  RMM-DIIS:  VPU time   16.84: CPU time   17.42
    ORTHCH:  VPU time    5.36: CPU time    5.66
    DOS   :  VPU time    0.00: CPU time    0.00
    ------------------------------------------
      LOOP:  VPU time   32.35: CPU time   33.27
 eigenvalue-minimisations  :   741
 total energy-change (2. order) :-0.9105870E+02  (-0.9444300E+02)
 total number of electrons:            600.0000000
 number of augment-electrons   :       600.00000

 Energy of electron-ion system
  alpha Z + extp PSCENC =   0.901106985828E+04
  Ewald energy   TEWEN  =  -0.500645082589E+05
  -1/2 hartree   DENC   =  -0.891293658916E+04
  -V(xc)+E(xc)   XCENC  =   0.239206390177E+04
  PAW double counting   =   0.000000000000E+00  0.000000000000E+00
  Entropy T*S    EENTRO =  -0.558007555387E-01
  eigenvalues    EBANDS =  -0.564064095999E+04
  atomic energy  EATOM  =   0.000000000000E+00
  ---------------------------------------------------
  free energy    TOTEN  =  -0.532150078487E+05

 energy without entropy=  -0.532149520480E+05  energy(sigma->0) = -0.532149892485E+05


--------------------------------------------------------------------------------------------------------




----------------------------------------- Iteration    1(   6)  ---------------------------------------


    EDDIAG:  VPU time   11.19: CPU time   11.38
  RMM-DIIS:  VPU time   22.47: CPU time   23.16
    ORTHCH:  VPU time    5.71: CPU time    6.17
    DOS   :  VPU time    0.00: CPU time    0.00
    ------------------------------------------
      LOOP:  VPU time   39.41: CPU time   40.84
 eigenvalue-minimisations  :   898
 total energy-change (2. order) :-0.1753344E+02  (-0.2095710E+02)
 total number of electrons:            600.0000000
 number of augment-electrons   :       600.00000

 Energy of electron-ion system
  alpha Z + extp PSCENC =   0.901106985828E+04
  Ewald energy   TEWEN  =  -0.500645082589E+05
  -1/2 hartree   DENC   =  -0.891293658916E+04
  -V(xc)+E(xc)   XCENC  =   0.239206390177E+04
  PAW double counting   =   0.000000000000E+00  0.000000000000E+00
  Entropy T*S    EENTRO =  -0.476106688477E-01
  eigenvalues    EBANDS =  -0.565818258834E+04
  atomic energy  EATOM  =   0.000000000000E+00
  ---------------------------------------------------
  free energy    TOTEN  =  -0.532325412870E+05

 energy without entropy=  -0.532324936763E+05  energy(sigma->0) = -0.532325254168E+05


--------------------------------------------------------------------------------------------------------




----------------------------------------- Iteration    1(   7)  ---------------------------------------


    EDDIAG:  VPU time   10.85: CPU time   11.46
  RMM-DIIS:  VPU time   15.27: CPU time   15.67
    ORTHCH:  VPU time    4.04: CPU time    4.06
    DOS   :  VPU time    0.00: CPU time    0.00
    CHARGE:  VPU time    1.06: CPU time    1.07
    MIXING:  VPU time    0.02: CPU time    0.02
    ------------------------------------------
      LOOP:  VPU time   31.28: CPU time   32.31
 eigenvalue-minimisations  :   721
 total energy-change (2. order) :-0.2785961E+01  (-0.4298643E+01)
 total number of electrons:            599.9999830
 number of augment-electrons   :       360.12630

 Broyden mixing:
  rms(total) = 0.84532E+00    rms(broyden)= 0.83375E+00
  rms(prec ) = 0.11623E+01
  weight for this iteration    1000.00

 Energy of electron-ion system
  alpha Z + extp PSCENC =   0.901106985828E+04
  Ewald energy   TEWEN  =  -0.500645082589E+05
  -1/2 hartree   DENC   =  -0.891293658916E+04
  -V(xc)+E(xc)   XCENC  =   0.239206390177E+04
  PAW double counting   =   0.000000000000E+00  0.000000000000E+00
  Entropy T*S    EENTRO =   0.358459321122E-01
  eigenvalues    EBANDS =  -0.566105200641E+04
  atomic energy  EATOM  =   0.000000000000E+00
  ---------------------------------------------------
  free energy    TOTEN  =  -0.532353272484E+05

 energy without entropy=  -0.532353630944E+05  energy(sigma->0) = -0.532353391971E+05


--------------------------------------------------------------------------------------------------------




----------------------------------------- Iteration    1(   8)  ---------------------------------------


    POTLOK:  VPU time    0.10: CPU time    0.10
    SETDIJ:  VPU time    0.07: CPU time    0.07
    EDDIAG:  VPU time   10.52: CPU time   10.89
  RMM-DIIS:  VPU time   14.38: CPU time   15.55
    ORTHCH:  VPU time    5.08: CPU time    5.74
    DOS   :  VPU time    0.00: CPU time    0.00
    CHARGE:  VPU time    1.13: CPU time    1.13
    MIXING:  VPU time    0.02: CPU time    0.21
    ------------------------------------------
      LOOP:  VPU time   31.35: CPU time   33.75
 eigenvalue-minimisations  :   697
 total energy-change (2. order) : 0.2630831E+01  (-0.1589216E+01)
 total number of electrons:            599.9999830
 number of augment-electrons   :       362.46241

 Broyden mixing:
  rms(total) = 0.23475E+00    rms(broyden)= 0.23121E+00
  rms(prec ) = 0.34050E+00
  weight for this iteration    1000.00

 eigenvalues of (default mixing * dielectric matrix)
  average eigenvalue GAMMA=   1.2422
  1.2422

 Energy of electron-ion system
  alpha Z + extp PSCENC =   0.901106985828E+04
  Ewald energy   TEWEN  =  -0.500645082589E+05
  -1/2 hartree   DENC   =  -0.870953446765E+04
  -V(xc)+E(xc)   XCENC  =   0.237662047613E+04
  PAW double counting   =   0.000000000000E+00  0.000000000000E+00
  Entropy T*S    EENTRO =   0.269556191558E-01
  eigenvalues    EBANDS =  -0.584637098122E+04
  atomic energy  EATOM  =   0.000000000000E+00
  ---------------------------------------------------
  free energy    TOTEN  =  -0.532326964177E+05

 energy without entropy=  -0.532327233733E+05  energy(sigma->0) = -0.532327054029E+05


--------------------------------------------------------------------------------------------------------




----------------------------------------- Iteration    1(   9)  ---------------------------------------


    POTLOK:  VPU time    0.13: CPU time    0.13
    SETDIJ:  VPU time    0.08: CPU time    0.08
    EDDIAG:  VPU time   12.88: CPU time   13.74
  RMM-DIIS:  VPU time   15.94: CPU time   16.93
    ORTHCH:  VPU time    3.99: CPU time    4.02
    DOS   :  VPU time    0.00: CPU time    0.00
    CHARGE:  VPU time    1.06: CPU time    1.06
    MIXING:  VPU time    0.02: CPU time    0.02
    ------------------------------------------
      LOOP:  VPU time   34.13: CPU time   36.02
 eigenvalue-minimisations  :   702
 total energy-change (2. order) : 0.7294670E-01  (-0.2655890E+00)
 total number of electrons:            599.9999830
 number of augment-electrons   :       363.13131

 Broyden mixing:
  rms(total) = 0.65733E-01    rms(broyden)= 0.60743E-01
  rms(prec ) = 0.94008E-01
  weight for this iteration    1000.00

 eigenvalues of (default mixing * dielectric matrix)
  average eigenvalue GAMMA=   1.4171
  1.2354  1.5988

 Energy of electron-ion system
  alpha Z + extp PSCENC =   0.901106985828E+04
  Ewald energy   TEWEN  =  -0.500645082589E+05
  -1/2 hartree   DENC   =  -0.863771618647E+04
  -V(xc)+E(xc)   XCENC  =   0.237189963146E+04
  PAW double counting   =   0.000000000000E+00  0.000000000000E+00
  Entropy T*S    EENTRO =   0.989970576394E-02
  eigenvalues    EBANDS =  -0.591337841512E+04
  atomic energy  EATOM  =   0.000000000000E+00
  ---------------------------------------------------
  free energy    TOTEN  =  -0.532326234710E+05

 energy without entropy=  -0.532326333707E+05  energy(sigma->0) = -0.532326267709E+05


--------------------------------------------------------------------------------------------------------




----------------------------------------- Iteration    1(  10)  ---------------------------------------


    POTLOK:  VPU time    0.10: CPU time    0.10
    SETDIJ:  VPU time    0.06: CPU time    0.06
    EDDIAG:  VPU time   10.00: CPU time   10.05
  RMM-DIIS:  VPU time   17.23: CPU time   18.62
    ORTHCH:  VPU time    4.63: CPU time    5.21
    DOS   :  VPU time    0.00: CPU time    0.00
    CHARGE:  VPU time    1.11: CPU time    1.11
    MIXING:  VPU time    0.04: CPU time    0.04
    ------------------------------------------
      LOOP:  VPU time   33.21: CPU time   35.24
 eigenvalue-minimisations  :   694
 total energy-change (2. order) :-0.1620512E-01  (-0.3206379E-01)
 total number of electrons:            599.9999829
 number of augment-electrons   :       363.44082

 Broyden mixing:
  rms(total) = 0.35776E-01    rms(broyden)= 0.33126E-01
  rms(prec ) = 0.46443E-01
  weight for this iteration    1000.00

 eigenvalues of (default mixing * dielectric matrix)
  average eigenvalue GAMMA=   1.3680
  0.9037  1.6001  1.6001

 Energy of electron-ion system
  alpha Z + extp PSCENC =   0.901106985828E+04
  Ewald energy   TEWEN  =  -0.500645082589E+05
  -1/2 hartree   DENC   =  -0.862660744274E+04
  -V(xc)+E(xc)   XCENC  =   0.237144998903E+04
  PAW double counting   =   0.000000000000E+00  0.000000000000E+00
  Entropy T*S    EENTRO =   0.644543900374E-02
  eigenvalues    EBANDS =  -0.592405026728E+04
  atomic energy  EATOM  =   0.000000000000E+00
  ---------------------------------------------------
  free energy    TOTEN  =  -0.532326396761E+05

 energy without entropy=  -0.532326461216E+05  energy(sigma->0) = -0.532326418246E+05


--------------------------------------------------------------------------------------------------------




----------------------------------------- Iteration    1(  11)  ---------------------------------------


    POTLOK:  VPU time    0.11: CPU time    0.11
    SETDIJ:  VPU time    0.07: CPU time    0.07
    EDDIAG:  VPU time   11.24: CPU time   11.62
  RMM-DIIS:  VPU time   18.48: CPU time   18.88
    ORTHCH:  VPU time    4.88: CPU time    5.04
    DOS   :  VPU time    0.00: CPU time    0.00
    CHARGE:  VPU time    1.12: CPU time    1.32
    MIXING:  VPU time    0.02: CPU time    0.02
    ------------------------------------------
      LOOP:  VPU time   35.96: CPU time   37.10
 eigenvalue-minimisations  :   690
 total energy-change (2. order) : 0.9559137E-03  (-0.4934089E-02)
 total number of electrons:            599.9999829
 number of augment-electrons   :       363.36996

 Broyden mixing:
  rms(total) = 0.89753E-02    rms(broyden)= 0.88946E-02
  rms(prec ) = 0.16086E-01
  weight for this iteration    1000.00

 eigenvalues of (default mixing * dielectric matrix)
  average eigenvalue GAMMA=   1.3907
  1.6664  1.6664  0.8705  1.3594

 Energy of electron-ion system
  alpha Z + extp PSCENC =   0.901106985828E+04
  Ewald energy   TEWEN  =  -0.500645082589E+05
  -1/2 hartree   DENC   =  -0.863462690926E+04
  -V(xc)+E(xc)   XCENC  =   0.237210648779E+04
  PAW double counting   =   0.000000000000E+00  0.000000000000E+00
  Entropy T*S    EENTRO =   0.673546299388E-02
  eigenvalues    EBANDS =  -0.591668663363E+04
  atomic energy  EATOM  =   0.000000000000E+00
  ---------------------------------------------------
  free energy    TOTEN  =  -0.532326387202E+05

 energy without entropy=  -0.532326454557E+05  energy(sigma->0) = -0.532326409654E+05


--------------------------------------------------------------------------------------------------------




----------------------------------------- Iteration    1(  12)  ---------------------------------------


    POTLOK:  VPU time    0.21: CPU time    0.24
    SETDIJ:  VPU time    0.07: CPU time    0.12
    EDDIAG:  VPU time   10.67: CPU time   10.95
  RMM-DIIS:  VPU time   14.53: CPU time   14.70
    ORTHCH:  VPU time    4.30: CPU time    4.57
    DOS   :  VPU time    0.00: CPU time    0.00
    CHARGE:  VPU time    1.30: CPU time    1.30
    MIXING:  VPU time    0.11: CPU time    0.17
    ------------------------------------------
      LOOP:  VPU time   31.22: CPU time   32.27
 eigenvalue-minimisations  :   692
 total energy-change (2. order) : 0.2156696E-03  (-0.6591374E-03)
 total number of electrons:            599.9999829
 number of augment-electrons   :       363.34992

 Broyden mixing:
  rms(total) = 0.54761E-02    rms(broyden)= 0.54468E-02
  rms(prec ) = 0.78557E-02
  weight for this iteration    1000.00

 eigenvalues of (default mixing * dielectric matrix)
  average eigenvalue GAMMA=   1.4190
  2.1814  1.4760  1.4760  0.9809  0.9809

 Energy of electron-ion system
  alpha Z + extp PSCENC =   0.901106985828E+04
  Ewald energy   TEWEN  =  -0.500645082589E+05
  -1/2 hartree   DENC   =  -0.863374493675E+04
  -V(xc)+E(xc)   XCENC  =   0.237204107505E+04
  PAW double counting   =   0.000000000000E+00  0.000000000000E+00
  Entropy T*S    EENTRO =   0.634334156844E-02
  eigenvalues    EBANDS =  -0.591750258562E+04
  atomic energy  EATOM  =   0.000000000000E+00
  ---------------------------------------------------
  free energy    TOTEN  =  -0.532326385045E+05

 energy without entropy=  -0.532326448479E+05  energy(sigma->0) = -0.532326406190E+05


--------------------------------------------------------------------------------------------------------




----------------------------------------- Iteration    1(  13)  ---------------------------------------


    POTLOK:  VPU time    0.17: CPU time    0.17
    SETDIJ:  VPU time    0.12: CPU time    0.12
    EDDIAG:  VPU time   11.35: CPU time   12.39
  RMM-DIIS:  VPU time   14.41: CPU time   15.45
    ORTHCH:  VPU time    4.70: CPU time    4.86
    DOS   :  VPU time    0.00: CPU time    0.00
    ------------------------------------------
      LOOP:  VPU time   30.80: CPU time   33.13
 eigenvalue-minimisations  :   599
 total energy-change (2. order) : 0.3290098E-04  (-0.1579403E-03)
 total number of electrons:            599.9999829
 number of augment-electrons   :       363.34992

 Energy of electron-ion system
  alpha Z + extp PSCENC =   0.901106985828E+04
  Ewald energy   TEWEN  =  -0.500645082589E+05
  -1/2 hartree   DENC   =  -0.863212893300E+04
  -V(xc)+E(xc)   XCENC  =   0.237191996593E+04
  PAW double counting   =   0.000000000000E+00  0.000000000000E+00
  Entropy T*S    EENTRO =   0.638723671616E-02
  eigenvalues    EBANDS =  -0.591899749123E+04
  atomic energy  EATOM  =   0.000000000000E+00
  ---------------------------------------------------
  free energy    TOTEN  =  -0.532326384716E+05

 energy without entropy=  -0.532326448589E+05  energy(sigma->0) = -0.532326406007E+05


--------------------------------------------------------------------------------------------------------


 E-fermi :  -3.6169     XC(G=0): -10.7126     alpha+bet : -0.6466
   add alpha+bet to get absolut eigen values

 k-point   1 :       0.0000    0.0000    0.0000
  band No.  band energies     occupation 
      1        -13.9719         2.00000
      2        -12.8864         2.00000
      3        -12.8176         2.00000
      4        -12.7192         2.00000
      5        -12.6648         2.00000
      6        -12.4770         2.00000
      7        -12.3045         2.00000
      8        -12.0993         2.00000
      9        -11.9482         2.00000
     10        -11.9159         2.00000
     11        -11.8502         2.00000
     12        -11.8260         2.00000
     13        -11.8198         2.00000
     14        -11.8097         2.00000
     15        -11.7716         2.00000
     16        -11.7616         2.00000
     17        -11.7292         2.00000
     18        -11.7210         2.00000
     19        -11.6899         2.00000
     20        -11.6612         2.00000
     21        -11.6438         2.00000
     22        -11.6399         2.00000
     23        -11.6223         2.00000
     24        -11.6003         2.00000
     25        -11.5575         2.00000
     26        -11.5466         2.00000
     27        -11.5321         2.00000
     28        -11.5194         2.00000
     29        -11.5148         2.00000
     30        -11.4873         2.00000
     31        -11.4862         2.00000
     32        -11.4417         2.00000
     33        -11.4335         2.00000
     34        -11.3956         2.00000
     35        -11.3869         2.00000
     36        -11.3814         2.00000
     37        -11.3750         2.00000
     38        -11.3480         2.00000
     39        -11.3390         2.00000
     40        -11.3269         2.00000
     41        -11.3095         2.00000
     42        -11.3021         2.00000
     43        -11.2965         2.00000
     44        -11.2740         2.00000
     45        -11.2690         2.00000
     46        -11.2510         2.00000
     47        -11.2445         2.00000
     48        -11.2260         2.00000
     49        -11.2225         2.00000
     50        -11.2037         2.00000
     51        -11.1890         2.00000
     52        -11.1844         2.00000
     53        -11.1718         2.00000
     54        -11.1550         2.00000
     55        -11.1502         2.00000
     56        -11.1393         2.00000
     57        -11.1212         2.00000
     58        -11.1126         2.00000
     59        -11.1010         2.00000
     60        -11.0927         2.00000
     61        -11.0829         2.00000
     62        -11.0681         2.00000
     63        -11.0627         2.00000
     64        -11.0514         2.00000
     65        -11.0399         2.00000
     66        -11.0265         2.00000
     67        -11.0194         2.00000
     68        -11.0033         2.00000
     69        -10.9953         2.00000
     70        -10.9720         2.00000
     71        -10.9577         2.00000
     72        -10.9542         2.00000
     73        -10.9415         2.00000
     74        -10.9352         2.00000
     75        -10.9199         2.00000
     76        -10.9049         2.00000
     77        -10.9032         2.00000
     78        -10.8903         2.00000
     79        -10.8766         2.00000
     80        -10.8630         2.00000
     81        -10.8549         2.00000
     82        -10.8452         2.00000
     83        -10.8282         2.00000
     84        -10.8208         2.00000
     85        -10.8159         2.00000
     86        -10.7992         2.00000
     87        -10.7951         2.00000
     88        -10.7839         2.00000
     89        -10.7758         2.00000
     90        -10.7691         2.00000
     91        -10.7585         2.00000
     92        -10.7457         2.00000
     93        -10.7314         2.00000
     94        -10.7202         2.00000
     95        -10.7069         2.00000
     96        -10.7008         2.00000
     97        -10.6906         2.00000
     98        -10.6802         2.00000
     99        -10.6744         2.00000
    100        -10.6595         2.00000
    101        -10.6409         2.00000
    102        -10.6313         2.00000
    103        -10.6287         2.00000
    104        -10.6107         2.00000
    105        -10.6021         2.00000
    106        -10.5943         2.00000
    107        -10.5887         2.00000
    108        -10.5739         2.00000
    109        -10.5617         2.00000
    110        -10.5520         2.00000
    111        -10.5422         2.00000
    112        -10.5372         2.00000
    113        -10.5300         2.00000
    114        -10.5186         2.00000
    115        -10.5116         2.00000
    116        -10.4970         2.00000
    117        -10.4841         2.00000
    118        -10.4814         2.00000
    119        -10.4739         2.00000
    120        -10.4640         2.00000
    121        -10.4556         2.00000
    122        -10.4477         2.00000
    123        -10.4291         2.00000
    124        -10.4239         2.00000
    125        -10.4160         2.00000
    126        -10.4058         2.00000
    127        -10.3942         2.00000
    128        -10.3796         2.00000
    129        -10.3729         2.00000
    130        -10.3668         2.00000
    131        -10.3601         2.00000
    132        -10.3502         2.00000
    133        -10.3404         2.00000
    134        -10.3370         2.00000
    135        -10.3259         2.00000
    136        -10.3061         2.00000
    137        -10.3005         2.00000
    138        -10.2977         2.00000
    139        -10.2933         2.00000
    140        -10.2713         2.00000
    141        -10.2655         2.00000
    142        -10.2568         2.00000
    143        -10.2475         2.00000
    144        -10.2335         2.00000
    145        -10.2208         2.00000
    146        -10.2187         2.00000
    147        -10.2108         2.00000
    148        -10.2033         2.00000
    149        -10.1963         2.00000
    150        -10.1824         2.00000
    151        -10.1753         2.00000
    152        -10.1682         2.00000
    153        -10.1486         2.00000
    154        -10.1415         2.00000
    155        -10.1366         2.00000
    156        -10.1276         2.00000
    157        -10.1190         2.00000
    158        -10.1089         2.00000
    159        -10.1025         2.00000
    160        -10.0919         2.00000
    161        -10.0881         2.00000
    162        -10.0719         2.00000
    163        -10.0550         2.00000
    164        -10.0493         2.00000
    165        -10.0407         2.00000
    166        -10.0353         2.00000
    167        -10.0194         2.00000
    168        -10.0163         2.00000
    169        -10.0103         2.00000
    170         -9.9995         2.00000
    171         -9.9860         2.00000
    172         -9.9831         2.00000
    173         -9.9809         2.00000
    174         -9.9781         2.00000
    175         -9.9676         2.00000
    176         -9.9528         2.00000
    177         -9.9460         2.00000
    178         -9.9412         2.00000
    179         -9.9343         2.00000
    180         -9.9237         2.00000
    181         -9.9199         2.00000
    182         -9.9109         2.00000
    183         -9.9043         2.00000
    184         -9.8912         2.00000
    185         -9.8770         2.00000
    186         -9.8730         2.00000
    187         -9.8697         2.00000
    188         -9.8646         2.00000
    189         -9.8533         2.00000
    190         -9.8395         2.00000
    191         -9.8347         2.00000
    192         -9.8224         2.00000
    193         -9.8182         2.00000
    194         -9.8127         2.00000
    195         -9.8021         2.00000
    196         -9.7958         2.00000
    197         -9.7883         2.00000
    198         -9.7769         2.00000
    199         -9.7738         2.00000
    200         -9.7647         2.00000
    201         -9.7588         2.00000
    202         -9.7510         2.00000
    203         -9.7416         2.00000
    204         -9.7386         2.00000
    205         -9.7302         2.00000
    206         -9.7200         2.00000
    207         -9.7153         2.00000
    208         -9.7055         2.00000
    209         -9.7043         2.00000
    210         -9.6928         2.00000
    211         -9.6774         2.00000
    212         -9.6731         2.00000
    213         -9.6709         2.00000
    214         -9.6574         2.00000
    215         -9.6504         2.00000
    216         -9.6449         2.00000
    217         -9.6354         2.00000
    218         -9.6267         2.00000
    219         -9.6179         2.00000
    220         -9.6075         2.00000
    221         -9.5956         2.00000
    222         -9.5885         2.00000
    223         -9.5840         2.00000
    224         -9.5798         2.00000
    225         -9.5650         2.00000
    226         -9.5504         2.00000
    227         -9.5438         2.00000
    228         -9.5368         2.00000
    229         -9.5359         2.00000
    230         -9.5294         2.00000
    231         -9.5157         2.00000
    232         -9.5054         2.00000
    233         -9.4951         2.00000
    234         -9.4857         2.00000
    235         -9.4821         2.00000
    236         -9.4670         2.00000
    237         -9.4579         2.00000
    238         -9.4469         2.00000
    239         -9.4406         2.00000
    240         -9.4292         2.00000
    241         -9.4178         2.00000
    242         -9.4130         2.00000
    243         -9.4025         2.00000
    244         -9.3860         2.00000
    245         -9.3744         2.00000
    246         -9.3605         2.00000
    247         -9.3550         2.00000
    248         -9.3502         2.00000
    249         -9.3267         2.00000
    250         -9.3191         2.00000
    251         -9.2899         2.00000
    252         -9.2807         2.00000
    253         -9.2710         2.00000
    254         -9.2539         2.00000
    255         -9.2362         2.00000
    256         -9.2242         2.00000
    257         -9.1935         2.00000
    258         -8.8177         2.00000
    259         -8.7900         2.00000
    260         -8.7371         2.00000
    261         -8.6205         2.00000
    262         -8.5673         2.00000
    263         -8.5195         2.00000
    264         -8.4354         2.00000
    265         -8.3870         2.00000
    266         -8.3074         2.00000
    267         -8.2498         2.00000
    268         -8.1745         2.00000
    269         -8.1486         2.00000
    270         -7.4921         2.00000
    271         -7.3405         2.00000
    272         -7.2369         2.00000
    273         -7.1574         2.00000
    274         -6.9497         2.00000
    275         -6.8953         2.00000
    276         -6.8051         2.00000
    277         -6.5997         2.00000
    278         -5.9280         2.00000
    279         -5.8684         2.00000
    280         -5.7513         2.00000
    281         -5.6385         2.00000
    282         -5.4726         2.00000
    283         -5.2484         2.00000
    284         -5.1168         2.00000
    285         -5.0200         2.00000
    286         -4.8433         2.00000
    287         -4.8022         2.00000
    288         -4.7149         2.00000
    289         -4.5309         2.00000
    290         -4.4661         2.00000
    291         -4.4433         2.00000
    292         -4.3535         2.00000
    293         -4.3244         2.00000
    294         -4.2748         2.00000
    295         -4.2370         2.00000
    296         -4.0334         2.00000
    297         -3.9735         2.00001
    298         -3.8759         2.00154
    299         -3.8666         2.00235
    300         -3.6865         1.91668
    301         -3.5533         0.12843
    302         -3.4600        -0.04901
    303         -3.2260         0.00000
    304         -3.1287         0.00000
    305         -3.0934         0.00000
    306         -2.9711         0.00000
    307         -2.9027         0.00000
    308         -2.8089         0.00000
    309         -2.7306         0.00000
    310         -2.5916         0.00000
    311         -2.5138         0.00000
    312         -2.4429         0.00000
    313         -2.3102         0.00000
    314         -2.2256         0.00000
    315         -2.1335         0.00000
    316         -1.9324         0.00000


--------------------------------------------------------------------------------------------------------


 soft charge-density along one line
         0         1         2         3         4         5         6         7         8         9
 total charge-density along one line
         0         1         2         3         4         5         6         7         8         9
 
 pseudopotential strength for 1. ion:
 -8.740  -0.001  -0.004   0.003   0.000 -30.453  -0.003  -0.012   0.010   0.000  -0.013   0.005  -0.036
 -0.001  -8.737   0.001   0.004   0.000  -0.003 -30.439   0.003   0.010   0.001   0.004  -0.018   0.005
 -0.004   0.001  -8.742   0.003  -0.002  -0.012   0.003 -30.444   0.010  -0.006   0.023   0.006  -0.001
  0.003   0.004   0.003  -8.737   0.003   0.010   0.010   0.010 -30.445   0.011   0.005  -0.037   0.019
  0.000   0.000  -0.002   0.003  -8.735   0.000   0.001  -0.006   0.011 -30.417   0.021   0.007  -0.023
-30.453  -0.003  -0.012   0.010   0.000 *******  -0.014  -0.042   0.043  -0.001  -0.034   0.014  -0.113
 -0.003 -30.439   0.003   0.010   0.001  -0.014 *******   0.011   0.032   0.003   0.008  -0.055   0.014
 -0.012   0.003 -30.444   0.010  -0.006  -0.042   0.011 *******   0.043  -0.023   0.071   0.014  -0.007
  0.010   0.010   0.010 -30.445   0.011   0.043   0.032   0.043 *******   0.043   0.014  -0.111   0.055
  0.000   0.001  -0.006   0.011 -30.417  -0.001   0.003  -0.023   0.043 *******   0.065   0.023  -0.065
 -0.013   0.004   0.023   0.005   0.021  -0.034   0.008   0.071   0.014   0.065  21.412   0.000   0.000
  0.005  -0.018   0.006  -0.037   0.007   0.014  -0.055   0.014  -0.111   0.023   0.000  21.412   0.000
 -0.036   0.005  -0.001   0.019  -0.023  -0.113   0.014  -0.007   0.055  -0.065   0.000   0.000  21.412
 total augmentation occupancies for 1. ion:
  3.371  -0.010  -0.006  -0.004   0.003  -0.002   0.001   0.001
 -0.010   3.372   0.005   0.002  -0.001   0.000   0.000   0.000
 -0.006   0.005   3.425   0.003   0.004   0.001   0.000  -0.008
 -0.004   0.002   0.003   3.373   0.004   0.001   0.000   0.001
  0.003  -0.001   0.004   0.004   3.414   0.000   0.000  -0.001
 -0.002   0.000   0.001   0.001   0.000   0.002   0.000   0.000
  0.001   0.000   0.000   0.000   0.000   0.000   0.001   0.000
  0.001   0.000  -0.008   0.001  -0.001   0.000   0.000   0.002
  0.001   0.000   0.001  -0.001   0.000   0.000   0.000   0.000
  0.000   0.001  -0.001   0.000  -0.004   0.000   0.000   0.000
  0.004  -0.002   0.002   0.006   0.004   0.000   0.000  -0.001
  0.000   0.002  -0.003  -0.010   0.007   0.000   0.000   0.000
 -0.005   0.002  -0.007   0.004  -0.002   0.002   0.000   0.001


------------------------ aborting loop because EDIFF is reached ----------------------------------------


    CHARGE:  VPU time    1.23: CPU time    1.24
    FORLOC:  VPU time    0.17: CPU time    0.17
    FORNL :  VPU time    9.33: CPU time    9.98
    STRESS:  VPU time   20.89: CPU time   21.22
    FORHAR:  VPU time    0.23: CPU time    0.23
    MIXING:  VPU time    0.02: CPU time    0.02


--------------------------------------------------------------------------------------------------------



  FREE-ENERGIE OF THE ION-ELECTRON SYSTEM (eV)
  ---------------------------------------------------
  alpha Z        PSCENC =      9011.069858
  Ewald energy   TEWEN  =    -50064.508259
  -1/2 Hartree   DENC   =     -8632.128933
  -V(xc)+E(xc)   XCENC  =      2371.919966
  PAW double counting   =         0.000000        0.000000
  entropy T*S    EENTRO =         0.006387
  eigenvalues    EBANDS =     -5918.997491
  atomic energy  EATOM  =         0.000000
  ---------------------------------------------------
  free  energy   TOTEN  =    -53232.638472 eV

  energy  without entropy=   -53232.644859  energy(sigma->0) =   -53232.640601
 

  FORCE on cell =-STRESS in cart. coord.  units (eV/reduce length):
  Direction    X        Y        Z        XY       YZ       ZX
  -------------------------------------------------------------------------------------
  Alpha Z  9011.07  9011.07  9011.07
  Ewald  -16436.16-16616.71-17011.89   438.44  -236.58  -566.01
  Hartree  2977.62  2891.86  2762.99   179.93  -129.62  -297.54
  E(xc)   -2371.92 -2371.92 -2371.92     0.00     0.00     0.00
  Local   12677.61 12939.84 13432.50  -593.32   369.06   860.73
  n-local -2665.10 -2665.29 -2668.23     5.04    -0.39    -0.59
  augment -6486.45 -6484.67 -6469.17   -13.51    -1.90     0.56
  Kinetic  3295.34  3308.35  3300.06     3.39    -1.15     4.07
  -------------------------------------------------------------------------------------
  Total       2.02    12.54   -14.58    19.99    -0.58     1.23
  in kB       2.57    15.96   -18.56    25.44    -0.74     1.56
  external pressure =       -0.01 kB  Pullay stress =        0.00 kB


 VOLUME and BASIS-vectors are now :
 -----------------------------------------------------------------------------
  energy-cutoff  :      140.00
  volume of cell :     1258.66
      direct lattice vectors                 reciprocal lattice vectors
    10.797000000  0.000000000  0.000000000     0.092618320  0.000000000  0.000000000
     0.000000000 10.797000000  0.000000000     0.000000000  0.092618320  0.000000000
     0.000000000  0.000000000 10.797000000     0.000000000  0.000000000  0.092618320

  length of vectors
    10.797000000 10.797000000 10.797000000     0.092618320  0.092618320  0.092618320


 FORCES acting on ions
    electron-ion (+dipol)            ewald-force                    non-local-force                 convergence-correction
 -----------------------------------------------------------------------------------------------
   0.317E+02 0.586E+02 0.221E+02   -.331E+02 -.605E+02 -.215E+02   0.102E+01 0.151E+01 -.376E+00   -.185E-01 0.823E-02 -.527E-02
   -.205E+02 -.131E+02 0.500E+02   0.230E+02 0.142E+02 -.520E+02   -.173E+01 -.739E+00 0.142E+01   -.162E-01 -.389E-02 -.120E-01
   -.999E+02 0.224E+02 -.345E+01   0.102E+03 -.231E+02 0.394E+01   -.137E+01 0.317E+00 -.400E+00   -.117E-01 0.138E-01 -.358E-02
   -.162E+02 -.414E+02 -.508E+02   0.169E+02 0.410E+02 0.516E+02   -.145E+00 0.370E+00 -.709E+00   0.949E-02 0.457E-02 0.178E-01
   0.452E+02 -.383E+02 0.779E+02   -.444E+02 0.432E+02 -.825E+02   -.973E-02 -.297E+01 0.303E+01   0.176E-01 0.252E-01 0.101E-01
   -.700E+02 0.199E+02 0.489E+02   0.729E+02 -.188E+02 -.501E+02   -.207E+01 -.466E+00 0.780E+00   -.163E-01 -.108E-02 0.127E-01
   -.392E+02 0.526E+02 -.727E+01   0.399E+02 -.546E+02 0.630E+01   -.758E+00 0.149E+01 0.704E+00   -.542E-02 0.561E-03 -.543E-02
   0.897E+02 0.637E+02 0.484E+02   -.929E+02 -.642E+02 -.519E+02   0.226E+01 0.776E+00 0.225E+01   0.857E-02 0.785E-02 -.117E-01
   0.454E+02 0.112E+03 0.597E+02   -.464E+02 -.115E+03 -.593E+02   0.902E+00 0.236E+01 -.265E+00   -.290E-01 -.634E-02 -.421E-02
   0.179E+03 -.202E+02 0.728E+02   -.183E+03 0.193E+02 -.743E+02   0.310E+01 0.631E+00 0.137E+01   0.168E-01 -.149E-01 -.110E-01
   0.301E+02 0.878E+02 -.388E+02   -.302E+02 -.901E+02 0.376E+02   -.177E-01 0.166E+01 0.851E+00   0.231E-02 0.130E-01 -.135E-01
   0.232E+02 0.878E+02 0.793E+00   -.272E+02 -.965E+02 0.235E+01   0.237E+01 0.545E+01 -.169E+01   0.125E-01 -.100E-01 0.223E-01
   -.249E+02 0.543E+02 0.848E+01   0.246E+02 -.545E+02 -.835E+01   0.514E+00 0.332E+00 0.181E-01   -.118E-01 -.219E-02 -.116E-01
   -.281E+02 -.204E+02 -.542E+02   0.269E+02 0.216E+02 0.551E+02   0.648E+00 -.976E+00 -.754E+00   -.155E-01 0.943E-02 -.220E-02
   0.630E+02 0.541E+02 -.569E+02   -.643E+02 -.555E+02 0.579E+02   0.745E+00 0.774E+00 -.903E+00   -.120E-02 -.166E-03 0.109E-02
   -.700E+02 0.526E+02 0.670E+01   0.714E+02 -.551E+02 -.654E+01   -.106E+01 0.180E+01 -.657E-01   -.468E-02 0.307E-01 -.192E-02
   -.102E+03 0.688E+02 -.449E+02   0.105E+03 -.683E+02 0.452E+02   -.207E+01 -.149E+00 -.132E+00   -.429E-02 0.155E-01 -.197E-01
   -.824E+02 -.234E+03 -.651E+02   0.990E+02 0.253E+03 0.742E+02   -.885E+01 -.110E+02 -.522E+01   0.513E-02 0.435E-02 0.392E-02
   -.106E+03 -.101E+03 -.407E+02   0.108E+03 0.102E+03 0.414E+02   -.160E+01 -.993E+00 -.569E+00   -.251E-02 -.225E-01 0.105E-02
   -.403E+02 0.105E+02 0.976E+02   0.409E+02 -.102E+02 -.991E+02   -.324E+00 -.205E+00 0.127E+01   0.789E-02 -.268E-02 0.127E-01
   -.116E+03 0.189E+01 0.430E+02   0.120E+03 -.237E+01 -.467E+02   -.182E+01 0.298E+00 0.231E+01   -.545E-02 -.440E-02 -.196E-02
   -.779E+02 -.422E+02 0.419E+02   0.830E+02 0.455E+02 -.440E+02   -.305E+01 -.184E+01 0.134E+01   -.146E-01 -.164E-01 -.656E-04
   0.663E+02 0.726E+02 0.887E+02   -.683E+02 -.756E+02 -.895E+02   0.138E+01 0.211E+01 0.581E+00   0.244E-01 -.199E-01 0.896E-02
   0.345E+02 0.320E+02 0.372E+02   -.384E+02 -.305E+02 -.369E+02   0.269E+01 -.105E+01 -.188E+00   0.262E-01 -.279E-02 -.132E-01
   -.203E+01 -.149E+03 0.501E+02   0.404E+01 0.153E+03 -.503E+02   -.132E+01 -.262E+01 0.297E+00   0.254E-01 -.177E-01 0.873E-02
   0.117E+02 0.613E+02 -.609E+02   -.124E+02 -.630E+02 0.621E+02   0.199E+00 0.130E+01 -.701E+00   -.277E-02 0.364E-01 -.441E-02
   0.105E+03 -.453E+02 0.375E+02   -.108E+03 0.497E+02 -.389E+02   0.179E+01 -.294E+01 0.921E+00   -.999E-02 -.329E-01 -.473E-02
   0.115E+01 -.294E+02 -.174E+03   -.160E+01 0.308E+02 0.178E+03   0.189E+00 -.722E+00 -.297E+01   0.923E-02 0.190E-01 -.184E-01
   0.858E+01 -.228E+02 -.207E+03   -.744E+01 0.221E+02 0.214E+03   -.742E+00 0.249E+00 -.417E+01   -.311E-02 -.780E-02 -.163E-01
   0.161E+03 0.595E+02 0.337E+02   -.180E+03 -.746E+02 -.439E+02   0.973E+01 0.779E+01 0.579E+01   0.321E-02 0.148E-02 -.701E-02
   -.166E+02 -.234E+00 0.700E+02   0.170E+02 0.879E+00 -.699E+02   -.630E+00 -.451E+00 -.128E+00   -.214E-01 0.291E-02 -.342E-02
   -.291E+02 -.106E+03 0.429E+02   0.300E+02 0.108E+03 -.444E+02   -.722E+00 -.116E+01 0.115E+01   0.978E-02 -.193E-02 -.209E-02
   -.152E+02 0.276E+02 0.834E+02   0.179E+02 -.313E+02 -.839E+02   -.195E+01 0.240E+01 0.563E+00   0.185E-01 0.873E-03 0.135E-01
   0.637E+02 -.681E+01 -.584E+02   -.653E+02 0.687E+01 0.615E+02   0.116E+01 -.334E+00 -.212E+01   0.264E-02 -.922E-02 -.177E-01
   -.213E+02 -.233E+02 0.840E+02   0.224E+02 0.237E+02 -.849E+02   -.889E+00 0.106E+00 0.626E+00   -.166E-01 0.444E-02 -.310E-02
   0.334E+02 0.165E+02 0.367E+02   -.325E+02 -.143E+02 -.370E+02   -.766E+00 -.163E+01 0.187E+00   0.277E-02 -.202E-01 0.302E-01
   0.235E+02 -.772E+02 -.477E+02   -.257E+02 0.780E+02 0.483E+02   0.147E+01 -.675E+00 -.424E+00   -.133E-01 -.713E-02 -.178E-01
   -.160E+02 -.548E+02 0.155E+02   0.164E+02 0.569E+02 -.154E+02   -.487E+00 -.146E+01 -.109E+00   0.284E-02 -.223E-01 -.403E-02
   0.190E+02 0.585E+02 0.259E+02   -.188E+02 -.586E+02 -.265E+02   -.722E-01 0.334E+00 0.196E+00   0.162E-02 -.612E-02 0.518E-02
   -.233E+02 -.183E+02 -.331E+02   0.222E+02 0.196E+02 0.356E+02   0.423E+00 -.750E+00 -.149E+01   0.149E-01 0.675E-02 -.259E-01
   -.184E+02 0.366E+02 -.944E+02   0.157E+02 -.404E+02 0.982E+02   0.122E+01 0.194E+01 -.251E+01   0.787E-02 -.325E-04 0.219E-04
   -.812E+01 0.895E+02 0.257E+02   0.701E+01 -.916E+02 -.258E+02   0.760E+00 0.169E+01 0.413E+00   0.434E-02 0.103E-01 0.247E-01
   0.550E+02 0.868E+02 -.492E+01   -.562E+02 -.893E+02 0.577E+01   0.105E+01 0.177E+01 -.490E+00   0.533E-02 0.578E-02 0.333E-02
   0.828E+02 -.487E+02 -.292E+02   -.839E+02 0.495E+02 0.293E+02   0.845E+00 -.747E+00 -.100E+00   0.122E-01 -.104E-01 0.849E-02
   -.309E+02 0.159E+01 0.431E+02   0.314E+02 -.209E+01 -.445E+02   -.333E+00 0.555E+00 0.866E+00   0.158E-01 0.614E-02 -.168E-02
   0.314E+02 -.513E+02 0.250E+02   -.318E+02 0.517E+02 -.255E+02   0.188E+00 -.112E+00 0.231E+00   -.609E-02 -.311E-04 -.228E-02
   -.321E+02 0.262E+01 -.356E+02   0.320E+02 -.136E+01 0.359E+02   -.191E+00 -.814E+00 -.538E+00   -.110E-01 -.440E-02 0.220E-01
   0.439E+01 -.983E+02 -.756E+01   -.438E+01 0.102E+03 0.849E+01   -.197E-01 -.226E+01 -.791E+00   0.125E-01 0.515E-03 0.156E-01
   -.819E+02 0.123E+02 -.230E+02   0.855E+02 -.127E+02 0.241E+02   -.255E+01 0.676E-01 -.109E+01   -.164E-01 0.326E-01 0.138E-01
   -.204E+02 -.607E+02 -.135E+03   0.206E+02 0.615E+02 0.137E+03   -.151E+00 -.767E+00 -.120E+01   -.400E-02 -.185E-01 -.411E-02
 -----------------------------------------------------------------------------------------------
   -.398E+00 0.932E+00 0.344E+01   -.796E-12 -.313E-12 0.284E-13   -.106E+01 0.278E+00 -.292E+01   0.180E-01 -.557E-02 -.142E-01
 
 
 POSITION                                       TOTAL-FORCE (eV/Angst)
 -----------------------------------------------------------------------------------
      3.24328     10.50075      7.34089        -0.383051     -0.393766      0.211884
      1.08401      9.35687      9.57247         0.779695      0.291713     -0.656876
      4.56982      9.26214      9.72583         0.567751     -0.383381      0.083887
      6.62454     10.19823      7.35117         0.580716     -0.085861      0.077992
     10.47986      7.08623      9.54557         0.818295      1.910614     -1.505370
      3.79900      3.69710      1.21760         0.840334      0.607887     -0.322134
      3.48269      4.70026      7.37769         0.000576     -0.508640     -0.276576
      8.65117     10.55880      9.98324        -0.856804      0.174870     -1.293675
      3.83955      3.01461      4.87759        -0.061467     -0.772937      0.116896
      6.59527      1.63203      0.09863        -0.625684     -0.344715     -0.091704
      7.17977      5.63848      7.21688        -0.065008     -0.670725     -0.399709
      9.66383      5.00941     10.48488        -1.544096     -3.312402      1.465500
      1.54874      6.53825      1.25528         0.154050      0.154972      0.123450
      1.70945      4.00410      9.56283        -0.495656      0.250551      0.086068
      5.71318      4.94400      9.58613        -0.516363     -0.612851      0.103945
      6.73567      9.70534      1.46252         0.462851     -0.682377      0.077499
      8.94850      2.49853      1.50695         0.621802      0.380981      0.107655
      4.18545     10.71584      2.09466         7.734282      7.802606      3.850028
      3.13325      1.16806     10.08191         0.307492      0.416092      0.108910
      8.40213     10.58418      4.32968         0.333268      0.066172     -0.253161
     10.56360      4.72478      2.90515         1.460472     -0.204333     -1.327776
      0.92947      5.56632      6.17134         2.156922      1.437824     -0.771452
      6.95656      5.05880      1.57237        -0.573911     -0.899314     -0.196342
     10.43287      2.36629      4.67540        -1.144653      0.370294      0.107664
      8.60585      7.15637      1.61384         0.746489      1.056152      0.123364
      3.11504      8.63693      4.15932        -0.517376     -0.335530      0.417678
      3.10986      5.41653      3.93889        -1.054137      1.393406     -0.529307
      7.18787      7.70490      9.02233        -0.222977      0.665990      0.881370
     10.32308     10.01501      1.13102         0.426070     -0.527215      1.971834
      2.69314      9.32311      1.39219        -8.358515     -7.352877     -4.471855
      4.65681      6.85450      1.34947        -0.165773      0.173034     -0.120416
      6.43765      7.98922      4.04788         0.224495      0.704540     -0.407735
      1.26814      0.31625      4.34605         0.827692     -1.252581      0.072983
      6.59251      2.00350      2.94922        -0.338992     -0.304641      0.949749
      4.96812      0.08762      5.08629         0.145429      0.401850     -0.280870
      8.25669      2.81332      9.01857         0.118886      0.573355     -0.077151
      0.30229      1.45242      9.91397        -0.681429      0.111874      0.213610
      1.32730      1.84728      7.08411        -0.049650      0.623402     -0.005257
      7.52783      2.54075      5.98492         0.158468      0.188962     -0.420877
      8.55677      5.39054      4.31685        -0.594933      0.518608      0.955189
      9.80506      4.27097      7.00019        -1.443603     -1.956074      1.194177
      1.57504      2.59370      2.22510        -0.319030     -0.498605      0.364972
      5.85190      5.21033      4.33008        -0.130020     -0.723952      0.354971
      4.85877      7.39184      6.54963        -0.172318      0.056044      0.055860
      8.70883      7.95143      6.45031         0.168002      0.036719     -0.522815
     10.78357      8.01421      3.61286        -0.128859      0.271664     -0.257476
      2.82233      6.91179      8.89869        -0.262533      0.413298     -0.207245
      9.73603     10.53029      7.08485         0.023206      1.042093      0.144104
      0.81245      8.48448      6.34256         0.986445     -0.299958      0.100771
      5.06668      2.08226      7.47765         0.063150      0.027168      0.073767
 -----------------------------------------------------------------------------------
    total drift:                               -1.439922      1.204217      0.509059


--------------------------------------------------------------------------------------------------------



 mean value of Nose-termostat <S>:     1.000 mean value of <T> :     0.000
 mean temperature <T/S>/<1/S>  :     0.000

     LOOP+:  VPU time  426.13: CPU time  446.21
  
  
 General timing and accounting informations for this job:
 ========================================================
  
                  Total CPU time used (sec):      436.660
                            User time (sec):      436.178
                          System time (sec):        0.482
                         Elapsed time (sec):      458.126
  
                   Maximum memory used (kb):       32880.
                   Average memory used (kb):           0.
  
                          Minor page faults:          307
                          Major page faults:            0
                 Voluntary context switches:           65
