 vasp.4.6.12  27Jun03 complex 
 executed on                   HP date 2003.11.11  16:50:05
 serial version
     

--------------------------------------------------------------------------------------------------------


 INCAR:
 POTCAR:   Hg: s-lok R=3.1 Ra=2.8 real-opt[3.2-6.2
 POTCAR:   Hg: s-lok R=3.1 Ra=2.8 real-opt[3.2-6.2
   VRHFIN =Hg: 10s 2d fine mesh  CA                                             
   LEXCH  = CA                                                                  
   EATOM  =     0.0000 eV,  116.0819 Ry                                         
                                                                                
   TITEL  = US Hg, faked                                                        
   LULTRA =        T    use ultrasoft PP ?                                      
   IUNSCR =        1    unscreen: 0-lin 1-nonlin 2-no                           
   RPACOR =   -1.000    partial core radius                                     
   POMASS =  200.590; ZVAL   =   12.000    mass and valenz                      
   RCORE  =    3.050    outmost cutoff radius                                   
   RWIGS  =    3.050; RWIGS  =    1.614    wigner-seitz radius (au A)           
   ENMAX  =  158.977; ENMIN  =  119.233 eV                                      
   EAUG   =  265.444                                                            
                                                                                
   RCLOC  =    2.106    cutoff for local pot                                    
   LCOR   =        T    correct aug charges                                     
   RMAX   =    3.657    core radius for proj-oper                               
   QCUT   =   -3.000; QGAM   =    6.837    optimization parameters              
                                                                                
   Description                                                                  
     l     E      TYP  RCUT    TYP  RCUT                                        
     2   .000      7  2.470    23  3.050                                        
     2   .000      7  2.470    23  3.050                                        
     0   .000     15  2.720    23  2.720                                        
     1  -.200     15  2.720    23  3.050                                        
END of PSCTR-controll parameters                                                
  local pseudopotential read in
  atomic valenz-charges read in
  non local Contribution for L= 2  read in
    real space projection operators read in
  non local Contribution for L= 2  read in
    real space projection operators read in
  non local Contribution for L= 1  read in
    real space projection operators read in
    augmentation charges read in

   number of l-projection  operators is LMAX  = 3
   number of lm-projection operators is LMMAX = 13

 Hg: s-lok R=3.1 Ra=2.8 real-opt[3.2-6.2:
 energy of atom  1       EATOM=    0.0000

 EXHCAR: internal setup
 exchange correlation table for  LEXCH =        2
   RHO(1)=    0.500       N(1)  =     2000
   RHO(2)=  100.500       N(2)  =     4000

 POSCAR: Hg: 50 Atome emty-core PP               
  positions in direct lattice
  No initial velocities read in

     

--------------------------------------------------------------------------------------------------------


 ion  position               nearest neighbor table
   1  0.300  0.973  0.680-  35 2.86  38 2.89   3 3.00  50 3.00  19 3.11   2 3.31  49 3.31   4 3.39
                            44 3.59  33 3.64  26 3.69
   2  0.100  0.867  0.887-   5 2.67  29 2.90  37 3.02  30 3.07  47 3.07   1 3.31  19 3.36  49 3.36
                             8 3.47  48 3.49   3 3.49  13 3.78
   3  0.423  0.858  0.901-   1 3.00  47 3.04  19 3.08  30 3.10  28 3.13   4 3.28  16 3.36  31 3.42
                             2 3.49  18 3.50  44 3.70
   4  0.614  0.945  0.681-  35 2.89  28 3.05  50 3.10  48 3.14  45 3.19   3 3.28   8 3.34   1 3.39
                            44 3.41  20 3.53  39 3.54
   5  0.971  0.656  0.884-  12 2.42   2 2.67  13 3.17  47 3.21  28 3.39  25 3.42  45 3.67  49 3.67
                            14 3.69  29 3.78  41 3.85
   6  0.352  0.342  0.113-  42 2.68  14 3.24  19 3.25  31 3.27  27 3.29  15 3.33  23 3.46  13 3.62
                            10 3.65  34 3.70   9 3.72
   7  0.323  0.435  0.683-  47 2.76  14 2.90  22 2.95   9 3.04  50 3.06  44 3.13  15 3.15  27 3.53
                            38 3.59  11 3.82
   8  0.801  0.978  0.925-  29 2.62  10 2.93  37 2.98  48 3.09  16 3.09  36 3.22   4 3.34  28 3.35
                             2 3.47  17 3.60
   9  0.356  0.279  0.452-  27 2.68  50 3.02  43 3.03   7 3.04  35 3.14  34 3.51  42 3.51  38 3.54
                             6 3.72  33 3.77
  10  0.611  0.151  0.009-  36 2.77  34 2.87  17 2.88   8 2.93  16 3.05  18 3.57  19 3.59   6 3.65
                            15 3.67  23 3.75  50 3.77
  11  0.665  0.522  0.668-  28 2.74  15 2.87  45 2.88  41 2.97  44 2.98  43 3.21  40 3.22  39 3.35
                            36 3.52   7 3.82
  12  0.895  0.464  0.971-   5 2.42  36 2.99  25 3.07  14 3.15  17 3.18  23 3.30  21 3.35  13 3.46
                            41 3.56
  13  0.143  0.606  0.116-  30 3.01  21 3.03  31 3.13   5 3.17  46 3.19  27 3.30  47 3.42  12 3.46
                            14 3.56   6 3.62   2 3.78  25 3.81
  14  0.158  0.371  0.886-   7 2.90  37 2.94  12 3.15  47 3.18  19 3.22   6 3.24  38 3.31  13 3.56
                             5 3.69  41 3.73  42 3.74  22 3.81
  15  0.529  0.458  0.888-  11 2.87  23 3.05   7 3.15  28 3.18   6 3.33  31 3.36  36 3.37  47 3.56
                            50 3.61  10 3.67
  16  0.624  0.899  0.135-  18 2.82  10 3.05   8 3.09  32 3.12  25 3.17   3 3.36  20 3.43  34 3.44
                            31 3.53  29 3.62  28 3.83
  17  0.829  0.231  0.140-  34 2.81  10 2.88  21 3.09  12 3.18  23 3.24  36 3.37  37 3.38  42 3.50
                            24 3.50  29 3.58   8 3.60
  18  0.388  0.992  0.194-  30 2.16  16 2.82  35 3.10  26 3.12  19 3.25  34 3.30   3 3.50  10 3.57
                            33 3.71  42 3.74
  19  0.290  0.108  0.934-  37 2.85   3 3.08   1 3.11  14 3.22  18 3.25   6 3.25   2 3.36  50 3.37
                            30 3.41  38 3.57  10 3.59  42 3.62
  20  0.778  0.980  0.401-  48 3.06  34 3.18  32 3.27  24 3.30  39 3.33  45 3.39  16 3.43   4 3.53
                            35 3.53  46 3.58  33 3.70  29 3.77
  21  0.978  0.438  0.269-  40 2.54  42 2.88  24 2.95  13 3.03  17 3.09  12 3.35  46 3.37  25 3.38
                            27 3.57  22 3.57  23 3.86
  22  0.086  0.516  0.572-  41 2.46  49 2.93   7 2.95  27 3.12  21 3.57  47 3.58  46 3.66  40 3.68
                            24 3.76  14 3.81  38 3.85  45 3.86
  23  0.644  0.469  0.146-  25 2.67  31 2.93  43 2.97  15 3.05  40 3.19  17 3.24  12 3.30  34 3.37
                             6 3.46  10 3.75  21 3.86  32 3.87
  24  0.966  0.219  0.433-  33 2.64  21 2.95  38 2.99  41 3.07  42 3.13  39 3.19  20 3.30  17 3.50
                            40 3.58  48 3.64  22 3.76
  25  0.797  0.663  0.149-  23 2.67  12 3.07  46 3.08  16 3.17  40 3.23  32 3.36  29 3.37  21 3.38
                             5 3.42  28 3.71  13 3.81
  26  0.289  0.800  0.385-  30 2.88  35 3.06  33 3.09  18 3.12  49 3.18  44 3.21  27 3.23  46 3.24
                            32 3.39  31 3.67   1 3.69
  27  0.288  0.502  0.365-   9 2.68  43 2.78  22 3.12  26 3.23   6 3.29  13 3.30  31 3.34   7 3.53
                            21 3.57  42 3.64  44 3.71
  28  0.666  0.714  0.836-  11 2.74  45 3.00   4 3.05   3 3.13  15 3.18   8 3.35   5 3.39  44 3.41
                            25 3.71  16 3.83
  29  0.956  0.928  0.105-   8 2.62   2 2.90  37 3.11  46 3.22  30 3.25  25 3.37  17 3.58  16 3.62
                            20 3.77   5 3.78  33 3.82
  30  0.249  0.863  0.129-  18 2.16  26 2.88  13 3.01   2 3.07   3 3.10  31 3.15  29 3.25  19 3.41
                            33 3.74  46 3.74
  31  0.431  0.635  0.125-  23 2.93  13 3.13  30 3.15   6 3.27  27 3.34  15 3.36   3 3.42  32 3.43
                            16 3.53  43 3.61  26 3.67  47 3.73
  32  0.596  0.740  0.375-  43 2.85  44 3.02  16 3.12  20 3.27  45 3.31  40 3.36  25 3.36  26 3.39
                            35 3.41  31 3.43  23 3.87
  33  0.117  0.029  0.403-  24 2.64  26 3.09  42 3.13  38 3.14  49 3.33  46 3.43   1 3.64  48 3.64
                            20 3.70  18 3.71  30 3.74   9 3.77  35 3.78  29 3.82
  34  0.611  0.186  0.273-  17 2.81  10 2.87  20 3.18  39 3.22  18 3.30  35 3.30  23 3.37  16 3.44
                             9 3.51  43 3.57   6 3.70
  35  0.460  0.008  0.471-   1 2.86   4 2.89  26 3.06  18 3.10  50 3.12   9 3.14  34 3.30  32 3.41
                            20 3.53  39 3.66  33 3.78  44 3.79
  36  0.765  0.261  0.835-  10 2.77  41 2.93  12 2.99  39 3.13   8 3.22  37 3.28  15 3.37  17 3.37
                            11 3.52  50 3.62
  37  0.028  0.135  0.918-  19 2.85  14 2.94   8 2.98   2 3.02  38 3.04  29 3.11  36 3.28  17 3.38
                            42 3.55  48 3.58
  38  0.123  0.171  0.656-   1 2.89  24 2.99  37 3.04  33 3.14  48 3.19  14 3.31  41 3.36   9 3.54
                            19 3.57   7 3.59  50 3.77  22 3.85
  39  0.697  0.235  0.554-  50 2.91  41 3.03  36 3.13  24 3.19  34 3.22  20 3.33  11 3.35  40 3.46
                             4 3.54  43 3.56  35 3.66  48 3.74
  40  0.793  0.499  0.400-  21 2.54  43 2.71  41 3.16  23 3.19  11 3.22  25 3.23  45 3.34  32 3.36
                            39 3.46  46 3.51  24 3.58  22 3.68
  41  0.908  0.396  0.648-  22 2.46  36 2.93  11 2.97  39 3.03  24 3.07  40 3.16  38 3.36  12 3.56
                            14 3.73   5 3.85
  42  0.146  0.240  0.206-   6 2.68  21 2.88  33 3.13  24 3.13  17 3.50   9 3.51  37 3.55  19 3.62
                            27 3.64  14 3.74  18 3.74
  43  0.542  0.483  0.401-  40 2.71  27 2.78  32 2.85  23 2.97   9 3.03  11 3.21  44 3.27  39 3.56
                            34 3.57  31 3.61
  44  0.450  0.685  0.607-  11 2.98  32 3.02   7 3.13  47 3.15  26 3.21  43 3.27   4 3.41  28 3.41
                             1 3.59   3 3.70  27 3.71  35 3.79
  45  0.807  0.736  0.597-  48 2.85  11 2.88  49 2.95  28 3.00   4 3.19  32 3.31  40 3.34  20 3.39
                            46 3.52   5 3.67  22 3.86
  46  0.999  0.742  0.335-  49 2.89  25 3.08  13 3.19  29 3.22  26 3.24  21 3.37  33 3.43  40 3.51
                            45 3.52  20 3.58  22 3.66  30 3.74
  47  0.261  0.640  0.824-   7 2.76   3 3.04   2 3.07  44 3.15  14 3.18   5 3.21  13 3.42  15 3.56
                            22 3.58  49 3.61  31 3.73
  48  0.902  0.975  0.656-  45 2.85  49 2.87  20 3.06   8 3.09   4 3.14  38 3.19   2 3.49  37 3.58
                            24 3.64  33 3.64  39 3.74
  49  0.075  0.786  0.587-  48 2.87  46 2.89  22 2.93  45 2.95  26 3.18   1 3.31  33 3.33   2 3.36
                            47 3.61   5 3.67
  50  0.469  0.193  0.693-  39 2.91   1 3.00   9 3.02   7 3.06   4 3.10  35 3.12  19 3.37  15 3.61
                            36 3.62  38 3.77  10 3.77


IMPORTANT INFORMATION: All symmetrisations will be switched off!
NOSYMM: (Re-)initialisation of all symmetry stuff for point group C_1.



 KPOINTS: K dimer                                 
  k-points in cartesian coordinates
