<?xml version="1.0" encoding="ISO-8859-1"?>
<modeling>
 <generator>
  <i name="program" type="string">vasp </i>
  <i name="version" type="string">5.2.2  </i>
  <i name="subversion" type="string">15Apr09 complex  parallel </i>
  <i name="platform" type="string">LinuxIFC </i>
  <i name="date" type="string">2009 06 28 </i>
  <i name="time" type="string">18:40:53 </i>
 </generator>
 <incar>
  <i type="string" name="SYSTEM">  Hg</i>
  <i type="string" name="PREC">normal</i>
  <i type="int" name="IALGO">    48</i>
  <i name="BMIX">      2.50000000</i>
  <i type="int" name="NELM">    13</i>
  <i type="int" name="NELMDL">     7</i>
  <i type="int" name="NELMIN">     3</i>
  <i name="EDIFF">      0.00010000</i>
  <i type="int" name="NSW">     0</i>
  <i type="int" name="ISYM">     0</i>
  <i type="int" name="NBLOCK">     1</i>
  <i type="int" name="KBLOCK">     5</i>
  <i name="ENMAX">    140.00000000</i>
  <i type="int" name="NGX">    30</i>
  <i type="int" name="NGY">    30</i>
  <i type="int" name="NGZ">    30</i>
  <i type="int" name="NGXF">    48</i>
  <i type="int" name="NGYF">    48</i>
  <i type="int" name="NGZF">    48</i>
  <i type="int" name="NBANDS">   316</i>
  <i name="POTIM">      5.00000000</i>
  <i name="TEBEG">    423.00000000</i>
  <i name="APACO">     10.00000000</i>
  <i name="SMASS">      0.50000000</i>
  <v name="POMASS">    200.59000000</v>
  <i type="logical" name="LREAL"> T  </i>
  <i type="logical" name="LPLANE"> T  </i>
  <i name="EMIN">    -15.00000000</i>
  <i name="EMAX">      0.00000000</i>
  <i type="int" name="ISMEAR">     1</i>
  <i name="SIGMA">      0.10000000</i>
  <i type="int" name="NWRITE">     2</i>
  <i type="int" name="NSIM">     4</i>
  <i type="logical" name="LWAVE"> F  </i>
  <i type="logical" name="LCHARG"> F  </i>
  <i type="int" name="NELM">    13</i>
  <i type="logical" name="LPEAD"> F  </i>
  <i type="logical" name="LCALCPOL"> F  </i>
  <i type="logical" name="LCALCEPS"> F  </i>
  <v name="EFIELD_PEAD">      0.00000000      0.00000000      0.00000000</v>
  <i type="logical" name="LEFG"> F  </i>
 </incar>
 <kpoints>
  <varray name="kpointlist" >
   <v>       0.00000000       0.00000000       0.00000000 </v>
  </varray>
  <varray name="weights" >
   <v>       1.00000000 </v>
  </varray>
 </kpoints>
 <parameters>
  <separator name="general" >
   <i type="string" name="SYSTEM">Hg</i>
   <i type="logical" name="LCOMPAT"> F  </i>
  </separator>
  <separator name="electronic" >
   <i type="string" name="PREC">normal</i>
   <i name="ENMAX">    140.00000000</i>
   <i name="ENAUG">    265.44400000</i>
   <i name="EDIFF">      0.00010000</i>
   <i type="int" name="IALGO">    48</i>
   <i type="int" name="IWAVPR">    10</i>
   <i type="int" name="NBANDS">   316</i>
   <i name="NELECT">    600.00000000</i>
   <separator name="electronic smearing" >
    <i type="int" name="ISMEAR">     1</i>
    <i name="SIGMA">      0.10000000</i>
   </separator>
   <separator name="electronic projectors" >
    <i type="logical" name="LREAL"> T  </i>
    <v name="ROPT">      0.00000000</v>
    <i type="int" name="LMAXPAW">  -100</i>
    <i type="int" name="LMAXMIX">     2</i>
   </separator>
   <separator name="electronic startup" >
    <i type="int" name="ISTART">     0</i>
    <i type="int" name="ICHARG">     2</i>
    <i type="int" name="INIWAV">     1</i>
   </separator>
   <separator name="electronic spin" >
    <i type="int" name="ISPIN">     1</i>
    <i type="logical" name="LNONCOLLINEAR"> F  </i>
    <v name="MAGMOM">      1.00000000      1.00000000      1.00000000      1.00000000      1.00000000      1.00000000      1.00000000      1.00000000      1.00000000      1.00000000      1.00000000      1.00000000      1.00000000      1.00000000      1.00000000      1.00000000      1.00000000      1.00000000      1.00000000      1.00000000
      1.00000000      1.00000000      1.00000000      1.00000000      1.00000000      1.00000000      1.00000000      1.00000000      1.00000000      1.00000000      1.00000000      1.00000000      1.00000000      1.00000000      1.00000000      1.00000000      1.00000000      1.00000000      1.00000000      1.00000000
      1.00000000      1.00000000      1.00000000      1.00000000      1.00000000      1.00000000      1.00000000      1.00000000      1.00000000      1.00000000</v>
    <i name="NUPDOWN">     -1.00000000</i>
    <i type="logical" name="LSORBIT"> F  </i>
    <v name="SAXIS">      0.00000000      0.00000000      1.00000000</v>
    <i type="logical" name="LSPIRAL"> F  </i>
    <v name="QSPIRAL">      0.00000000      0.00000000      0.00000000</v>
    <i type="logical" name="LZEROZ"> F  </i>
   </separator>
   <separator name="electronic exchange-correlation" >
    <i type="logical" name="LASPH"> F  </i>
    <i type="logical" name="LMETAGGA"> F  </i>
   </separator>
   <separator name="electronic convergence" >
    <i type="int" name="NELM">    13</i>
    <i type="int" name="NELMDL">     7</i>
    <i type="int" name="NELMIN">     3</i>
    <i name="ENINI">    140.00000000</i>
    <separator name="electronic convergence detail" >
     <i type="logical" name="LDIAG"> T  </i>
     <i name="WEIMIN">      0.00000000</i>
     <i name="EBREAK">      0.00000008</i>
     <i name="DEPER">      0.30000000</i>
     <i type="int" name="NRMM">     4</i>
     <i name="TIME">      0.40000000</i>
    </separator>
   </separator>
   <separator name="electronic mixer" >
    <i name="AMIX">      0.80000000</i>
    <i name="BMIX">      2.50000000</i>
    <i name="AMIN">      0.10000000</i>
    <i name="AMIX_MAG">      3.20000000</i>
    <i name="BMIX_MAG">      2.50000000</i>
    <separator name="electronic mixer details" >
     <i type="int" name="IMIX">     4</i>
     <i type="int" name="MAXMIX">   -45</i>
     <i name="WC">    100.00000000</i>
     <i type="int" name="INIMIX">     1</i>
     <i type="int" name="MIXPRE">     1</i>
     <i type="int" name="MREMOVE">     5</i>
    </separator>
   </separator>
   <separator name="electronic dipolcorrection" >
    <i type="logical" name="LDIPOL"> F  </i>
    <i type="logical" name="LMONO"> F  </i>
    <i type="int" name="IDIPOL">     0</i>
    <i name="EPSILON">      1.00000000</i>
    <v name="DIPOL">   -100.00000000   -100.00000000   -100.00000000</v>
    <i name="EFIELD">      0.00000000</i>
   </separator>
  </separator>
  <separator name="grids" >
   <i type="int" name="NGX">    30</i>
   <i type="int" name="NGY">    30</i>
   <i type="int" name="NGZ">    30</i>
   <i type="int" name="NGXF">    48</i>
   <i type="int" name="NGYF">    48</i>
   <i type="int" name="NGZF">    48</i>
   <i type="logical" name="ADDGRID"> F  </i>
  </separator>
  <separator name="ionic" >
   <i type="int" name="NSW">     0</i>
   <i type="int" name="IBRION">    -1</i>
   <i type="int" name="ISIF">     2</i>
   <i name="PSTRESS">      0.00000000</i>
   <i name="EDIFFG">      0.00100000</i>
   <i type="int" name="NFREE">     0</i>
   <i name="POTIM">      5.00000000</i>
   <i name="SMASS">      0.50000000</i>
  </separator>
  <separator name="ionic md" >
   <i name="TEBEG">    423.00000000</i>
   <i name="TEEND">    423.00000000</i>
   <i type="int" name="NBLOCK">     1</i>
   <i type="int" name="KBLOCK">     1</i>
   <i type="int" name="NPACO">   256</i>
   <i name="APACO">     10.00000000</i>
  </separator>
  <separator name="symmetry" >
   <i type="int" name="ISYM">     0</i>
   <i name="SYMPREC">      0.00001000</i>
  </separator>
  <separator name="dos" >
   <i type="logical" name="LORBIT"> F  </i>
   <v name="RWIGS">     -1.00000000</v>
   <i type="int" name="NEDOS">   301</i>
   <i name="EMIN">    -15.00000000</i>
   <i name="EMAX">      0.00000000</i>
   <i name="EFERMI">      0.00000000</i>
  </separator>
  <separator name="writing" >
   <i type="int" name="NWRITE">     2</i>
   <i type="logical" name="LWAVE"> F  </i>
   <i type="logical" name="LCHARG"> F  </i>
   <i type="logical" name="LPARD"> F  </i>
   <i type="logical" name="LVTOT"> F  </i>
   <i type="logical" name="LELF"> F  </i>
   <i type="logical" name="LOPTICS"> F  </i>
   <v name="STM">      0.00000000      0.00000000      0.00000000      0.00000000      0.00000000</v>
  </separator>
  <separator name="performance" >
   <i type="int" name="NPAR">     1</i>
   <i type="int" name="NSIM">     4</i>
   <i type="int" name="NBLK">    32</i>
   <i type="logical" name="LPLANE"> T  </i>
   <i type="logical" name="LSCALAPACK"> F  </i>
   <i type="logical" name="LSCAAWARE"> F  </i>
   <i type="logical" name="LSCALU"> F  </i>
   <i type="logical" name="LASYNC"> F  </i>
  </separator>
  <separator name="miscellaneous" >
   <i type="int" name="IDIOT">     3</i>
   <i type="logical" name="LMUSIC"> F  </i>
   <v name="POMASS">    200.59000000</v>
   <i type="logical" name="LCORR"> T  </i>
  </separator>
  <i type="logical" name="LREAL_COMPAT"> F  </i>
  <i type="logical" name="GGA_COMPAT"> T  </i>
  <i type="logical" name="LBERRY"> F  </i>
  <i type="int" name="ICORELEVEL">     0</i>
  <i type="logical" name="LDAU"> F  </i>
  <i type="int" name="I_CONSTRAINED_M">     0</i>
  <separator name="electronic exchange-correlation" >
   <i type="string" name="GGA">--</i>
   <i type="int" name="VOSKOWN">     0</i>
   <i type="logical" name="LHFCALC"> F  </i>
   <i type="logical" name="LHFONE"> F  </i>
   <i type="logical" name="LRHFCALC"> F  </i>
   <i type="logical" name="LTHOMAS"> F  </i>
   <i type="logical" name="LMODELHF"> F  </i>
   <i name="ENCUTFOCK">      0.00000000</i>
   <i name="ENCUT4O">     -1.00000000</i>
   <i type="int" name="EXXOEP">     0</i>
   <i type="int" name="FOURORBIT">     0</i>
   <i name="AEXX">      0.00000000</i>
   <i name="HFALPHA">      0.00000000</i>
   <i name="ALDAX">      1.00000000</i>
   <i name="AGGAX">      1.00000000</i>
   <i name="ALDAC">      1.00000000</i>
   <i name="AGGAC">      1.00000000</i>
   <i type="int" name="NKREDX">     1</i>
   <i type="int" name="NKREDY">     1</i>
   <i type="int" name="NKREDZ">     1</i>
   <i type="logical" name="SHIFTRED"> F  </i>
   <i type="logical" name="ODDONLY"> F  </i>
   <i type="logical" name="EVENONLY"> F  </i>
   <i type="int" name="LMAXFOCK">     0</i>
   <i type="int" name="NMAXFOCKAE">     0</i>
   <i name="HFSCREEN">      0.00000000</i>
   <i name="HFSCREENC">      0.00000000</i>
  </separator>
  <separator name="model GW" >
   <i type="int" name="MODEL_GW">     0</i>
   <i name="MODEL_EPS0">     15.10395038</i>
   <i name="MODEL_ALPHA">      1.00000000</i>
  </separator>
  <separator name="linear response parameters" >
   <i type="logical" name="LEPSILON"> F  </i>
   <i type="logical" name="LRPA"> F  </i>
   <i type="logical" name="LNABLA"> F  </i>
   <i type="logical" name="LVEL"> F  </i>
   <i type="int" name="KINTER">     0</i>
   <i name="CSHIFT">      0.10000000</i>
   <i name="OMEGAMAX">     -1.00000000</i>
  </separator>
  <separator name="orbital magnetization" >
   <i type="logical" name="ORBITALMAG"> F  </i>
   <i type="logical" name="LMAGBLOCH"> F  </i>
   <i type="logical" name="LCHIMAG"> F  </i>
   <i type="logical" name="LGAUGE"> T  </i>
   <i type="int" name="MAGATOM">     0</i>
   <v name="MAGDIPOL">      0.00000000      0.00000000      0.00000000</v>
   <v name="AVECCONST">      0.00000000      0.00000000      0.00000000</v>
  </separator>
  <separator name="response functions" >
   <i type="logical" name="LRPA"> T  </i>
   <i type="logical" name="LTCTE"> F  </i>
   <i type="logical" name="LTETE"> F  </i>
   <i type="logical" name="L2ORDER"> F  </i>
   <i type="logical" name="LGWLF"> F  </i>
   <i name="ENCUTGW">     93.33333333</i>
   <i name="ENCUTGWSOFT">     -2.00000000</i>
   <i name="ENCUTLF">     -1.00000000</i>
   <i type="int" name="LMAXMP2">    -1</i>
   <i name="SCISSOR">      0.00000000</i>
   <i type="int" name="NOMEGA">     0</i>
   <i type="int" name="NOMEGAR">     0</i>
   <i type="int" name="NBANDSGW">    -1</i>
   <i type="int" name="NBANDSLF">    -1</i>
   <i type="int" name="NELM">    13</i>
   <i type="int" name="DIM">     3</i>
   <i type="int" name="ANTIRES">     0</i>
   <i type="logical" name="LUSEW"> F  </i>
   <i name="OMEGAMAX">    -30.00000000</i>
   <i name="OMEGATL">   -200.00000000</i>
   <i type="int" name="OMEGAGRID">     0</i>
   <i name="CSHIFT">     -0.10000000</i>
   <i type="logical" name="SELFENERGY"> F  </i>
   <i type="logical" name="LSPECTRAL"> F  </i>
   <i type="logical" name="ODDONLYGW"> F  </i>
   <i type="logical" name="EVENONLYGW"> F  </i>
   <i type="int" name="NKREDLFX">     1</i>
   <i type="int" name="NKREDLFY">     1</i>
   <i type="int" name="NKREDLFZ">     1</i>
   <i type="int" name="MAXMEM">  1024</i>
   <i type="int" name="TELESCOPE">     0</i>
  </separator>
 </parameters>
 <atominfo>
  <atoms>      50 </atoms>
  <types>       1 </types>
  <array name="atoms" >
   <dimension dim="1">ion</dimension>
   <field type="string">element</field>
   <field type="int">atomtype</field>
   <set>
    <rc><c>Hg</c><c>   1</c></rc>
    <rc><c>Hg</c><c>   1</c></rc>
    <rc><c>Hg</c><c>   1</c></rc>
    <rc><c>Hg</c><c>   1</c></rc>
    <rc><c>Hg</c><c>   1</c></rc>
    <rc><c>Hg</c><c>   1</c></rc>
    <rc><c>Hg</c><c>   1</c></rc>
    <rc><c>Hg</c><c>   1</c></rc>
    <rc><c>Hg</c><c>   1</c></rc>
    <rc><c>Hg</c><c>   1</c></rc>
    <rc><c>Hg</c><c>   1</c></rc>
    <rc><c>Hg</c><c>   1</c></rc>
    <rc><c>Hg</c><c>   1</c></rc>
    <rc><c>Hg</c><c>   1</c></rc>
    <rc><c>Hg</c><c>   1</c></rc>
    <rc><c>Hg</c><c>   1</c></rc>
    <rc><c>Hg</c><c>   1</c></rc>
    <rc><c>Hg</c><c>   1</c></rc>
    <rc><c>Hg</c><c>   1</c></rc>
    <rc><c>Hg</c><c>   1</c></rc>
    <rc><c>Hg</c><c>   1</c></rc>
    <rc><c>Hg</c><c>   1</c></rc>
    <rc><c>Hg</c><c>   1</c></rc>
    <rc><c>Hg</c><c>   1</c></rc>
    <rc><c>Hg</c><c>   1</c></rc>
    <rc><c>Hg</c><c>   1</c></rc>
    <rc><c>Hg</c><c>   1</c></rc>
    <rc><c>Hg</c><c>   1</c></rc>
    <rc><c>Hg</c><c>   1</c></rc>
    <rc><c>Hg</c><c>   1</c></rc>
    <rc><c>Hg</c><c>   1</c></rc>
    <rc><c>Hg</c><c>   1</c></rc>
    <rc><c>Hg</c><c>   1</c></rc>
    <rc><c>Hg</c><c>   1</c></rc>
    <rc><c>Hg</c><c>   1</c></rc>
    <rc><c>Hg</c><c>   1</c></rc>
    <rc><c>Hg</c><c>   1</c></rc>
    <rc><c>Hg</c><c>   1</c></rc>
    <rc><c>Hg</c><c>   1</c></rc>
    <rc><c>Hg</c><c>   1</c></rc>
    <rc><c>Hg</c><c>   1</c></rc>
    <rc><c>Hg</c><c>   1</c></rc>
    <rc><c>Hg</c><c>   1</c></rc>
    <rc><c>Hg</c><c>   1</c></rc>
    <rc><c>Hg</c><c>   1</c></rc>
    <rc><c>Hg</c><c>   1</c></rc>
    <rc><c>Hg</c><c>   1</c></rc>
    <rc><c>Hg</c><c>   1</c></rc>
    <rc><c>Hg</c><c>   1</c></rc>
    <rc><c>Hg</c><c>   1</c></rc>
   </set>
  </array>
  <array name="atomtypes" >
   <dimension dim="1">type</dimension>
   <field type="int">atomspertype</field>
   <field type="string">element</field>
   <field>mass</field>
   <field>valence</field>
   <field type="string">pseudopotential</field>
   <set>
    <rc><c>  50</c><c>Hg</c><c>    200.59000000</c><c>     12.00000000</c><c> Hg: s-lok R=3.1 Ra=2.8 real-opt[3.2-6.2</c></rc>
   </set>
  </array>
 </atominfo>
 <structure name="initialpos" >
  <crystal>
   <varray name="basis" >
    <v>      10.79700000       0.00000000       0.00000000 </v>
    <v>       0.00000000      10.79700000       0.00000000 </v>
    <v>       0.00000000       0.00000000      10.79700000 </v>
   </varray>
   <i name="volume">   1258.66253157 </i>
   <varray name="rec_basis" >
    <v>       0.09261832       0.00000000       0.00000000 </v>
    <v>       0.00000000       0.09261832       0.00000000 </v>
    <v>       0.00000000       0.00000000       0.09261832 </v>
   </varray>
  </crystal>
  <varray name="positions" >
   <v>       0.30038700       0.97256200       0.67990100 </v>
   <v>       0.10039900       0.86661800       0.88658600 </v>
   <v>       0.42324900       0.85784400       0.90079000 </v>
   <v>       0.61355400       0.94454300       0.68085300 </v>
   <v>       0.97062700       0.65631500       0.88409500 </v>
   <v>       0.35185700       0.34241900       0.11277200 </v>
   <v>       0.32256100       0.43533000       0.68330900 </v>
   <v>       0.80125700       0.97793800       0.92463100 </v>
   <v>       0.35561300       0.27920800       0.45175400 </v>
   <v>       0.61084300       0.15115600       0.00913500 </v>
   <v>       0.66497800       0.52222700       0.66841500 </v>
   <v>       0.89504800       0.46396300       0.97109200 </v>
   <v>       0.14344200       0.60556200       0.11626200 </v>
   <v>       0.15832600       0.37085300       0.88569300 </v>
   <v>       0.52914500       0.45790500       0.88785100 </v>
   <v>       0.62384600       0.89889200       0.13545600 </v>
   <v>       0.82879500       0.23141000       0.13957100 </v>
   <v>       0.38764900       0.99248300       0.19400400 </v>
   <v>       0.29019600       0.10818400       0.93377000 </v>
   <v>       0.77819100       0.98028900       0.40100800 </v>
   <v>       0.97838300       0.43760100       0.26907000 </v>
   <v>       0.08608600       0.51554300       0.57157900 </v>
   <v>       0.64430500       0.46853800       0.14563000 </v>
   <v>       0.96627500       0.21916200       0.43302800 </v>
   <v>       0.79705900       0.66281100       0.14947100 </v>
   <v>       0.28851000       0.79993800       0.38522900 </v>
   <v>       0.28803000       0.50167000       0.36481300 </v>
   <v>       0.66572800       0.71361500       0.83563300 </v>
   <v>       0.95610600       0.92757300       0.10475300 </v>
   <v>       0.24943400       0.86349100       0.12894200 </v>
   <v>       0.43130600       0.63485200       0.12498600 </v>
   <v>       0.59624400       0.73994800       0.37490800 </v>
   <v>       0.11745300       0.02929100       0.40252400 </v>
   <v>       0.61058700       0.18556100       0.27315200 </v>
   <v>       0.46013900       0.00811500       0.47108400 </v>
   <v>       0.76472100       0.26056500       0.83528500 </v>
   <v>       0.02799800       0.13452100       0.91821500 </v>
   <v>       0.12293200       0.17109200       0.65611800 </v>
   <v>       0.69721500       0.23532000       0.55431300 </v>
   <v>       0.79251400       0.49926300       0.39981900 </v>
   <v>       0.90812800       0.39557000       0.64834600 </v>
   <v>       0.14587800       0.24022400       0.20608500 </v>
   <v>       0.54199300       0.48257200       0.40104500 </v>
   <v>       0.45001100       0.68462000       0.60661600 </v>
   <v>       0.80659700       0.73644800       0.59741700 </v>
   <v>       0.99875600       0.74226300       0.33461700 </v>
   <v>       0.26139900       0.64015800       0.82418200 </v>
   <v>       0.90173500       0.97529800       0.65618700 </v>
   <v>       0.07524800       0.78581800       0.58743700 </v>
   <v>       0.46926700       0.19285500       0.69256700 </v>
  </varray>
 </structure>
 <calculation>
  <scstep>
   <time name="diag">    2.62    1.35</time>
   <time name="diis">    3.87    1.94</time>
   <time name="orth">    0.81    0.40</time>
   <time name="total">    7.41    3.77</time>
   <energy>
    <i name="alphaZ">   9011.06985828 </i>
    <i name="ewald"> -50064.50825885 </i>
    <i name="hartreedc">  -8912.93658916 </i>
    <i name="XCdc">   2392.06390177 </i>
    <i name="pawpsdc">      0.00000000 </i>
    <i name="pawaedc">      0.00000000 </i>
    <i name="eentropy">     -0.02986275 </i>
    <i name="bandstr">  -3876.36492528 </i>
    <i name="atom">      0.00000000 </i>
    <i name="e_fr_energy"> -51450.70587600 </i>
    <i name="e_wo_entrp"> -51450.67601325 </i>
    <i name="e_0_energy"> -51450.69592175 </i>
   </energy>
  </scstep>
  <scstep>
   <time name="diag">    2.64    1.35</time>
   <time name="diis">    3.87    1.94</time>
   <time name="orth">    0.81    0.40</time>
   <time name="total">    7.34    3.71</time>
   <energy>
    <i name="e_fr_energy"> -52760.43385949 </i>
    <i name="e_wo_entrp"> -52760.45792223 </i>
    <i name="e_0_energy"> -52760.44188041 </i>
   </energy>
  </scstep>
  <scstep>
   <time name="diag">    2.65    1.35</time>
   <time name="diis">    3.96    4.81</time>
   <time name="orth">    0.80    0.40</time>
   <time name="total">    7.44    6.58</time>
   <energy>
    <i name="e_fr_energy"> -52974.33537757 </i>
    <i name="e_wo_entrp"> -52974.31550845 </i>
    <i name="e_0_energy"> -52974.32875453 </i>
   </energy>
  </scstep>
  <scstep>
   <time name="diag">    2.63    1.35</time>
   <time name="diis">    3.87    1.94</time>
   <time name="orth">    0.81    0.40</time>
   <time name="total">    7.33    3.71</time>
   <energy>
    <i name="e_fr_energy"> -53114.51699753 </i>
    <i name="e_wo_entrp"> -53114.48299332 </i>
    <i name="e_0_energy"> -53114.50566279 </i>
   </energy>
  </scstep>
  <scstep>
   <time name="diag">    2.60    1.35</time>
   <time name="diis">    3.86    1.94</time>
   <time name="orth">    0.88    2.43</time>
   <time name="total">    7.36    5.74</time>
   <energy>
    <i name="e_fr_energy"> -53178.90296721 </i>
    <i name="e_wo_entrp"> -53178.92723529 </i>
    <i name="e_0_energy"> -53178.91105657 </i>
   </energy>
  </scstep>
  <scstep>
   <time name="diag">    2.61    1.35</time>
   <time name="diis">    7.83    3.93</time>
   <time name="orth">    0.80    0.40</time>
   <time name="total">   11.27    5.71</time>
   <energy>
    <i name="e_fr_energy"> -53226.44533647 </i>
    <i name="e_wo_entrp"> -53226.41422076 </i>
    <i name="e_0_energy"> -53226.43496457 </i>
   </energy>
  </scstep>
  <scstep>
   <time name="diag">    2.63    1.35</time>
   <time name="diis">    8.28    4.15</time>
   <time name="orth">    0.81    0.40</time>
   <time name="total">   12.20    6.31</time>
   <energy>
    <i name="e_fr_energy"> -53233.03344031 </i>
    <i name="e_wo_entrp"> -53232.98072737 </i>
    <i name="e_0_energy"> -53233.01586933 </i>
   </energy>
  </scstep>
  <scstep>
   <time name="diag">    2.60    1.35</time>
   <time name="diis">    7.61    3.81</time>
   <time name="orth">    0.81    0.40</time>
   <time name="total">   11.62    6.04</time>
   <energy>
    <i name="e_fr_energy"> -53232.27943961 </i>
    <i name="e_wo_entrp"> -53232.24037333 </i>
    <i name="e_0_energy"> -53232.26641752 </i>
   </energy>
  </scstep>
  <scstep>
   <time name="diag">    2.64    1.35</time>
   <time name="diis">    7.65    3.84</time>
   <time name="orth">    0.81    0.40</time>
   <time name="total">   11.74    6.08</time>
   <energy>
    <i name="e_fr_energy"> -53232.72830398 </i>
    <i name="e_wo_entrp"> -53232.75684182 </i>
    <i name="e_0_energy"> -53232.73781659 </i>
   </energy>
  </scstep>
  <scstep>
   <time name="diag">    2.59    1.35</time>
   <time name="diis">    7.60    3.81</time>
   <time name="orth">    0.81    0.40</time>
   <time name="total">   11.52    6.04</time>
   <energy>
    <i name="e_fr_energy"> -53232.71484497 </i>
    <i name="e_wo_entrp"> -53232.73174183 </i>
    <i name="e_0_energy"> -53232.72047725 </i>
   </energy>
  </scstep>
  <scstep>
   <time name="diag">    2.65    1.35</time>
   <time name="diis">    7.56    3.79</time>
   <time name="orth">    0.81    0.40</time>
   <time name="total">   11.62    6.03</time>
   <energy>
    <i name="e_fr_energy"> -53232.70895378 </i>
    <i name="e_wo_entrp"> -53232.71218843 </i>
    <i name="e_0_energy"> -53232.71003199 </i>
   </energy>
  </scstep>
  <scstep>
   <time name="diag">    2.66    1.36</time>
   <time name="diis">    7.56    3.80</time>
   <time name="orth">    0.81    0.40</time>
   <time name="total">   11.51    6.03</time>
   <energy>
    <i name="e_fr_energy"> -53232.70751181 </i>
    <i name="e_wo_entrp"> -53232.71437435 </i>
    <i name="e_0_energy"> -53232.70979933 </i>
   </energy>
  </scstep>
  <scstep>
   <time name="diag">    2.62    1.36</time>
   <time name="diis">    7.51    3.77</time>
   <time name="orth">    0.81    0.40</time>
   <time name="total">   11.01    5.62</time>
   <energy>
    <i name="alphaZ">   9011.06985828 </i>
    <i name="ewald"> -50064.50825885 </i>
    <i name="hartreedc">  -8630.91937419 </i>
    <i name="XCdc">   2371.82925845 </i>
    <i name="pawpsdc">      0.00000000 </i>
    <i name="pawaedc">      0.00000000 </i>
    <i name="eentropy">      0.00749683 </i>
    <i name="bandstr">  -5920.18657954 </i>
    <i name="atom">      0.00000000 </i>
    <i name="e_fr_energy"> -53232.70759904 </i>
    <i name="e_wo_entrp"> -53232.71509587 </i>
    <i name="e_0_energy"> -53232.71009798 </i>
   </energy>
  </scstep>
